<?xml version="1.0"?>
<VTKFile type="UnstructuredGrid"  version="0.1"  >
<UnstructuredGrid>
<Piece  NumberOfPoints="2929" NumberOfCells="5504">
<Points>
<DataArray  type="Float64"  NumberOfComponents="3"  format="ascii">3.999999999999964 0 0  4.249999999999965 0 0  4.124999999998478 0.2534792888374535 0  4.374999999998479 0.2534792888374535 0  4.499999999999966 0 0  4.249999999996992 0.506958577674907 0  4.624999999998479 0.2534792888374535 0  4.499999999996993 0.506958577674907 0  4.749999999996994 0.506958577674907 0  4.749999999999967 0 0  4.874999999998481 0.2534792888374535 0  4.999999999999968 0 0  4.374999999995506 0.7604378665123606 0  4.624999999995506 0.7604378665123606 0  4.499999999994019 1.013917155349814 0  5.99999999999997 0 0  6.249999999999971 0 0  6.124999999997403 0.2534792888376092 0  6.374999999997405 0.2534792888376092 0  6.499999999999972 0 0  6.249999999994837 0.5069585776752185 0  6.624999999997405 0.2534792888376092 0  6.499999999994838 0.5069585776752185 0  6.749999999994839 0.5069585776752185 0  6.749999999999972 0 0  6.874999999997407 0.2534792888376092 0  6.999999999999973 0 0  6.374999999992271 0.7604378665128277 0  6.624999999992271 0.7604378665128277 0  6.499999999989704 1.013917155350437 0  1.999999999999982 0 0  2.24999999999998 0 0  2.12499999999946 0.2613818370536612 0  2.374999999999459 0.2613818370536612 0  2.499999999999979 0 0  2.249999999998939 0.5227636741073225 0  2.624999999999457 0.2613818370536612 0  2.499999999998937 0.5227636741073225 0  2.749999999998935 0.5227636741073225 0  2.749999999999977 0 0  2.874999999999455 0.2613818370536612 0  2.999999999999975 0 0  2.374999999998417 0.7841455111609837 0  2.624999999998415 0.7841455111609837 0  2.499999999997895 1.045527348214645 0  1.999999999998379 2 0  1.74999999999856 2 0  1.874999999998781 1.716506350946107 0  1.624999999998962 1.716506350946107 0  1.499999999998741 2 0  1.749999999999184 1.433012701892215 0  1.374999999999143 1.716506350946107 0  1.499999999999365 1.433012701892215 0  1.249999999999545 1.433012701892215 0  1.249999999998922 2 0  1.124999999999324 1.716506350946107 0  0.9999999999991025 2 0  1.624999999999586 1.149519052838322 0  1.374999999999767 1.149519052838322 0  1.499999999999988 0.8660254037844294 0  7.999999999999975 0 0  8.249999999999975 0 0  8.124690294450405 0.261918262795331 0  8.374690294450405 0.261918262795331 0  8.499999999999975 0 0  8.249380588900834 0.523836525590662 0  8.624690294450405 0.261918262795331 0  8.499380588900834 0.523836525590662 0  8.749380588900834 0.523836525590662 0  8.749999999999975 0 0  8.874690294450406 0.261918262795331 0  8.999999999999977 0 0  8.374070883351264 0.785754788385993 0  8.624070883351264 0.785754788385993 0  8.498761177801693 1.047673051181324 0  18.99999999999849 2 0  18.74999999999811 2 0  18.87499999999887 1.71650635094611 0  18.62499999999849 1.71650635094611 0  18.49999999999773 2 0  18.74999999999925 1.433012701892219 0  18.37499999999811 1.71650635094611 0  18.49999999999887 1.433012701892219 0  18.24999999999849 1.433012701892219 0  18.24999999999736 2 0  18.12499999999773 1.71650635094611 0  17.99999999999698 2 0  18.62499999999962 1.149519052838329 0  18.37499999999925 1.149519052838329 0  18.5 0.8660254037844386 0  16.99999999999547 2 0  16.74999999999509 2 0  16.87499999999629 1.746520711162699 0  16.62499999999591 1.746520711162699 0  16.49999999999471 2 0  16.7499999999971 1.493041422325399 0  16.37499999999553 1.746520711162699 0  16.49999999999672 1.493041422325399 0  16.24999999999635 1.493041422325399 0  16.24999999999434 2 0  16.12499999999515 1.746520711162699 0  15.99999999999396 2 0  16.62499999999792 1.239562133488098 0  16.37499999999754 1.239562133488098 0  16.49999999999874 0.9860828446507974 0  12.99999999998939 2 0  12.74999999998901 2 0  12.87499999999136 1.74652071116254 0  12.62499999999098 1.74652071116254 0  12.49999999998862 2 0  12.74999999999334 1.49304142232508 0  12.3749999999906 1.74652071116254 0  12.49999999999295 1.49304142232508 0  12.24999999999257 1.49304142232508 0  12.24999999998824 2 0  12.12499999999022 1.74652071116254 0  11.99999999998786 2 0  12.62499999999531 1.239562133487619 0  12.37499999999493 1.239562133487619 0  12.49999999999728 0.9860828446501591 0  10.99999999998634 2 0  10.74999999998596 2 0  10.87439297711764 1.749732347235992 0  10.62439297711725 1.749732347235992 0  10.49999999998558 2 0  10.74878595424893 1.499464694471983 0  10.37439297711687 1.749732347235992 0  10.49878595424855 1.499464694471983 0  10.24878595424817 1.499464694471983 0  10.2499999999852 2 0  10.1243929771165 1.749732347235992 0  9.999999999984821 2 0  10.62317893138022 1.249197041707975 0  10.37317893137984 1.249197041707975 0  10.49757190851152 0.9989293889439668 0  14.99999999999243 2 0  14.74999999999205 2 0  14.87499999999383 1.74652071116262 0  14.62499999999345 1.74652071116262 0  14.49999999999167 2 0  14.74999999999522 1.493041422325239 0  14.37499999999307 1.74652071116262 0  14.49999999999484 1.493041422325239 0  14.24999999999446 1.493041422325239 0  14.24999999999129 2 0  14.12499999999268 1.74652071116262 0  13.99999999999091 2 0  14.62499999999661 1.239562133487858 0  14.37499999999624 1.239562133487858 0  14.49999999999801 0.9860828446504779 0  10.24702918641092 0.9928167955694513 0  10.12263620927924 1.24308444833346 0  9.996486464310319 0.986704202194936 0  9.998243232147571 1.493352101097468 0  9.872093487178645 1.236971854958944 0  9.747700510046972 1.487239507722953 0  9.873850255015896 1.743619753861476 0  9.74594374220972 0.9805916088204207 0  9.621550765078046 1.230859261584429 0  9.495401020109121 0.9744790154459053 0  9.749999999984439 2 0  9.623850255015515 1.743619753861476 0  9.499999999984059 2 0  9.373850255015135 1.743619753861476 0  9.497700510046592 1.487239507722953 0  9.24770051004621 1.487239507722953 0  9.249999999983679 2 0  9.123850255014755 1.743619753861476 0  8.999999999983299 2 0  9.371550765077664 1.230859261584429 0  3.999999999993654 2 0  3.749999999994383 2 0  3.874999999994342 1.744460791439874 0  3.624999999995071 1.744460791439874 0  3.499999999995112 2 0  3.74999999999503 1.488921582879748 0  3.3749999999958 1.744460791439874 0  3.499999999995759 1.488921582879748 0  3.249999999996488 1.488921582879748 0  3.249999999995841 2 0  3.124999999996529 1.744460791439874 0  2.99999999999657 2 0  3.624999999995718 1.233382374319621 0  3.374999999996447 1.233382374319621 0  3.499999999996406 0.9778431657594949 0  5.99999999998782 2 0  5.74999999998855 2 0  5.87499999998929 1.751159762945844 0  5.62499999999002 1.751159762945844 0  5.499999999989278 2 0  5.749999999990761 1.502319525891687 0  5.374999999990749 1.751159762945844 0  5.49999999999149 1.502319525891687 0  5.24999999999222 1.502319525891687 0  5.249999999990007 2 0  5.124999999991478 1.751159762945844 0  4.999999999990736 2 0  5.624999999992232 1.253479288837531 0  5.37499999999296 1.253479288837531 0  5.499999999993702 1.004639051783375 0  16.99999999999999 0 0  17.24999999999999 0 0  17.1249999999998 0.2593847116342085 0  17.37499999999981 0.2593847116342085 0  17.49999999999999 0 0  17.24999999999962 0.518769423268417 0  17.62499999999981 0.2593847116342085 0  17.49999999999962 0.518769423268417 0  17.74999999999962 0.518769423268417 0  17.75 0 0  17.87499999999981 0.2593847116342085 0  18 0 0  17.37499999999944 0.7781541349026255 0  17.62499999999944 0.7781541349026255 0  17.49999999999925 1.037538846536834 0  14.99999999999999 0 0  15.24999999999999 0 0  15.12499999999929 0.2488402370542198 0  15.37499999999929 0.2488402370542198 0  15.49999999999999 0 0  15.24999999999858 0.4976804741084396 0  15.62499999999929 0.2488402370542198 0  15.49999999999858 0.4976804741084396 0  15.74999999999858 0.4976804741084396 0  15.74999999999999 0 0  15.87499999999929 0.2488402370542198 0  15.99999999999999 0 0  15.37499999999788 0.7465207111626594 0  15.62499999999788 0.7465207111626594 0  15.49999999999718 0.9953609482168791 0  7.999999999982053 2 0  7.749999999982765 2 0  7.874963130275843 1.744524651647608 0  7.624963130276555 1.744524651647608 0  7.499999999983477 2 0  7.749926260569634 1.489049303295215 0  7.374963130277267 1.744524651647608 0  7.499926260570346 1.489049303295215 0  7.249926260571058 1.489049303295215 0  7.24999999998419 2 0  7.12496313027798 1.744524651647608 0  6.999999999984902 2 0  7.624889390863425 1.233573954942823 0  7.374889390864137 1.233573954942823 0  7.499852521157216 0.9780986065904302 0  12.99999999999999 0 0  13.24999999999999 0 0  13.12499999999898 0.2488402370541932 0  13.37499999999898 0.2488402370541932 0  13.49999999999999 0 0  13.24999999999796 0.4976804741083863 0  13.62499999999898 0.2488402370541932 0  13.49999999999796 0.4976804741083863 0  13.74999999999796 0.4976804741083863 0  13.74999999999999 0 0  13.87499999999898 0.2488402370541932 0  13.99999999999999 0 0  13.37499999999694 0.7465207111625796 0  13.62499999999694 0.7465207111625796 0  13.49999999999593 0.9953609482167727 0  10.99999999999998 0 0  11.24999999999998 0 0  11.12489882952011 0.2493755097330886 0  11.37489882952011 0.2493755097330886 0  11.49999999999998 0 0  11.24979765904023 0.4987510194661772 0  11.62489882952011 0.2493755097330886 0  11.49979765904023 0.4987510194661772 0  11.74979765904023 0.4987510194661772 0  11.74999999999998 0 0  11.87489882952011 0.2493755097330886 0  11.99999999999998 0 0  11.37469648856036 0.7481265291992658 0  11.62469648856036 0.7481265291992658 0  11.49959531808049 0.9975020389323543 0  6.749963130281582 1.004962518160435 0  6.874963130284149 0.751483229322826 0  6.99992626057346 0.9960078809704336 0  6.999963130286717 0.4980039404852168 0  7.124926260576027 0.7425285921328244 0  7.249926260578595 0.4890493032952151 0  7.124963130289284 0.2445246516476076 0  7.249889390865338 0.9870532437804319 0  7.374889390867905 0.7335739549428226 0  4.74999999999394 1.011597629458204 0  4.874999999995428 0.7581183406207508 0  4.999999999993861 1.009278103566595 0  4.99999999999
[...]
<PointData  Vectors="t"> 
<DataArray  type="Float64"  Name="t"  NumberOfComponents="3" format="ascii">-2.4569188919166090e-09 1.8074198518397029e-03 0.0000000000000000e+00  -2.0391170108162002e-09 1.8949273599826782e-03 0.0000000000000000e+00  -2.5527503309565718e-09 1.8515180674063797e-03 0.0000000000000000e+00  -2.6086575935389675e-09 1.9376528284489331e-03 0.0000000000000000e+00  -1.9389762779703724e-09 1.9797002753795439e-03 0.0000000000000000e+00  -3.0970922726641888e-09 1.8949272031054769e-03 0.0000000000000000e+00  -2.5507082950718077e-09 2.0210748161411979e-03 0.0000000000000000e+00  -3.2133391520136820e-09 1.9797001428117247e-03 0.0000000000000000e+00  -3.2012651689086723e-09 2.0617820312606784e-03 0.0000000000000000e+00  -1.8469828064371905e-09 2.0617821862022935e-03 0.0000000000000000e+00  -2.5010471051964595e-09 2.1018275039626100e-03 0.0000000000000000e+00  -1.6887495595899766e-09 2.1412164936589367e-03 0.0000000000000000e+00  -3.7406014569298583e-09 1.9376527465359884e-03 0.0000000000000000e+00  -3.8882590897206444e-09 2.0210746942832445e-03 0.0000000000000000e+00  -4.5276579309724308e-09 1.9797001346150626e-03 0.0000000000000000e+00  -1.6470327810005773e-09 2.4333464360029198e-03 0.0000000000000000e+00  -1.5158819716282581e-09 2.5001941071522709e-03 0.0000000000000000e+00  -2.1568944886901288e-09 2.4670713293430137e-03 0.0000000000000000e+00  -2.1335236613801162e-09 2.5327199858885372e-03 0.0000000000000000e+00  -1.4609500266384670e-09 2.5646545873797386e-03 0.0000000000000000e+00  -2.7546140394631288e-09 2.5001940023936056e-03 0.0000000000000000e+00  -2.1117565994034091e-09 2.5960031612864073e-03 0.0000000000000000e+00  -2.7626226337339053e-09 2.5646545233387109e-03 0.0000000000000000e+00  -2.8811351510475692e-09 2.6267712249420086e-03 0.0000000000000000e+00  -1.4146299818367101e-09 2.6267712836233856e-03 0.0000000000000000e+00  -2.1945136595988421e-09 2.6569642015606141e-03 0.0000000000000000e+00  -1.1365339844112253e-09 2.6865874498693174e-03 0.0000000000000000e+00  -3.3480515487029240e-09 2.5327199139682879e-03 0.0000000000000000e+00  -3.4836410206277885e-09 2.5960031421169037e-03 0.0000000000000000e+00  -3.9683348013454345e-09 2.5646545435021998e-03 0.0000000000000000e+00  -5.9188963198487555e-09 1.0037145933801906e-03 0.0000000000000000e+00  -3.5584290211585763e-09 1.1146615723094467e-03 0.0000000000000000e+00  -3.4514794403735818e-09 1.0595762982851691e-03 0.0000000000000000e+00  -3.8310409952050651e-09 1.1689754095646320e-03 0.0000000000000000e+00  -3.1088229237535841e-09 1.2225248730604976e-03 0.0000000000000000e+00  -3.5979805703947135e-09 1.1146610724650017e-03 0.0000000000000000e+00  -3.6064256538671775e-09 1.2753139739904678e-03 0.0000000000000000e+00  -4.2466910084412465e-09 1.2225242866851160e-03 0.0000000000000000e+00  -4.3751464903848334e-09 1.3273488823458027e-03 0.0000000000000000e+00  -2.6779800336263807e-09 1.3273496334894124e-03 0.0000000000000000e+00  -3.5070037217639139e-09 1.3786357633161495e-03 0.0000000000000000e+00  -1.6995472084658074e-09 1.4291791399509547e-03 0.0000000000000000e+00  -4.1130813569463795e-09 1.1689751380584627e-03 0.0000000000000000e+00  -5.0590968842398728e-09 1.2753133525556198e-03 0.0000000000000000e+00  -5.2502439561645733e-09 1.2225237864385836e-03 0.0000000000000000e+00  -7.5823300196095975e-09 1.0037139585985185e-03 0.0000000000000000e+00  -5.2101545710097155e-09 8.8964561910101459e-04 0.0000000000000000e+00  -3.9560665689724127e-09 9.4707292963763898e-04 0.0000000000000000e+00  -3.9983016875032488e-09 8.3142406941180702e-04 0.0000000000000000e+00  -4.0979971566510264e-09 7.7240634382826773e-04 0.0000000000000000e+00  -3.3174021808698713e-09 8.8964458178900216e-04 0.0000000000000000e+00  -2.6823723839405693e-09 7.1258356797252365e-04 0.0000000000000000e+00  -3.8537689329345155e-09 7.7240654632591908e-04 0.0000000000000000e+00  5.0257188426071191e-09 6.5195972560774123e-04 0.0000000000000000e+00  -2.9789531856658431e-09 6.5195277091463066e-04 0.0000000000000000e+00  6.8780282123279900e-09 5.9051080080834296e-04 0.0000000000000000e+00  1.1254610589889466e-08 5.2821947535321872e-04 0.0000000000000000e+00  -2.8807301140628544e-09 8.3142617204868044e-04 0.0000000000000000e+00  4.1467343935021517e-09 7.1259326384280923e-04 0.0000000000000000e+00  2.7744305903346899e-09 7.7241725740088410e-04 0.0000000000000000e+00  -2.0864328826244127e-09 2.9037173005659633e-03 0.0000000000000000e+00  -1.5147567129780385e-09 2.9526833403295144e-03 0.0000000000000000e+00  -2.0160660627697579e-09 2.9283973080459205e-03 0.0000000000000000e+00  -2.0901182987136399e-09 2.9763402450866771e-03 0.0000000000000000e+00  -1.3564639178776444e-09 2.9996091061488344e-03 0.0000000000000000e+00  -2.5744606665760580e-09 2.9525642878130225e-03 0.0000000000000000e+00  -2.0132262299987597e-09 3.0222647648017794e-03 0.0000000000000000e+00  -2.7316411678549961e-09 2.9994951117260859e-03 0.0000000000000000e+00  -2.8850757506509233e-09 3.0444291345646246e-03 0.0000000000000000e+00  -1.2057912501162991e-09 3.0445382718797369e-03 0.0000000000000000e+00  -2.0858894028550353e-09 3.0662142762418300e-03 0.0000000000000000e+00  -6.8135012179966640e-10 3.0875139882463980e-03 0.0000000000000000e+00  -3.2261180723938188e-09 2.9762238048277479e-03 0.0000000000000000e+00  -3.5767010770543045e-09 3.0221532794095095e-03 0.0000000000000000e+00  -4.0544498969387879e-09 2.9993814541524411e-03 0.0000000000000000e+00  -7.2699334522761440e-09 3.7032565100275205e-03 0.0000000000000000e+00  -6.6740084855695672e-09 3.7028165008493796e-03 0.0000000000000000e+00  -6.3894438726127946e-09 3.7030617587515062e-03 0.0000000000000000e+00  -5.9117623332092905e-09 3.7025173415813021e-03 0.0000000000000000e+00  -6.6927687128862082e-09 3.7021583598433471e-03 0.0000000000000000e+00  -5.6794236335071677e-09 3.7028170843947713e-03 0.0000000000000000e+00  -5.9104065324308800e-09 3.7017343048792502e-03 0.0000000000000000e+00  -5.1597141293942612e-09 3.7021585313325258e-03 0.0000000000000000e+00  -5.2832822889653965e-09 3.7012397204016063e-03 0.0000000000000000e+00  -6.6892773826348868e-09 3.7012396747258098e-03 0.0000000000000000e+00  -6.0083454572205398e-09 3.7006690396353555e-03 0.0000000000000000e+00  -6.4960647367581080e-09 3.7000169246148564e-03 0.0000000000000000e+00  -5.0424670563898203e-09 3.7025181144321111e-03 0.0000000000000000e+00  -4.6113504314058400e-09 3.7017345820376628e-03 0.0000000000000000e+00  -4.4268524141962075e-09 3.7021594475962808e-03 0.0000000000000000e+00  -6.8961228310702980e-09 3.6912205270622201e-03 0.0000000000000000e+00  -6.8244147121817634e-09 3.6878278665231517e-03 0.0000000000000000e+00  -6.1224090080431683e-09 3.6895920330662756e-03 0.0000000000000000e+00  -6.1645142263024599e-09 3.6859226296511293e-03 0.0000000000000000e+00  -6.8245174866080161e-09 3.6838709014919190e-03 0.0000000000000000e+00  -5.4707484857558406e-09 3.6878278771116124e-03 0.0000000000000000e+00  -6.1699838263517920e-09 3.6816672549360423e-03 0.0000000000000000e+00  -5.5227236141876079e-09 3.6838709028220781e-03 0.0000000000000000e+00  -5.5331652908329814e-09 3.6793062634535561e-03 0.0000000000000000e+00  -6.8183351985866920e-09 3.6793062811470898e-03 0.0000000000000000e+00  -6.1708697901417071e-09 3.6767825273202126e-03 0.0000000000000000e+00  -6.7868431979400948e-09 3.6740906044244919e-03 0.0000000000000000e+00  -4.8477573109611202e-09 3.6859226465833696e-03 0.0000000000000000e+00  -4.9020402469307987e-09 3.6816672451764208e-03 0.0000000000000000e+00  -4.2664183700456122e-09 3.6838708990884874e-03 0.0000000000000000e+00  -6.6957668526838464e-09 3.5449228780330055e-03 0.0000000000000000e+00  -6.6378015141992931e-09 3.5272940548626798e-03 0.0000000000000000e+00  -5.9737732151762239e-09 3.5362630700489571e-03 0.0000000000000000e+00  -5.9644240826380381e-09 3.5180103199487357e-03 0.0000000000000000e+00  -6.6104570239543757e-09 3.5084065332004789e-03 0.0000000000000000e+00  -5.3016470300489844e-09 3.5272940101585383e-03 0.0000000000000000e+00  -5.9435141218140282e-09 3.4984771789078506e-03 0.0000000000000000e+00  -5.2990984977872720e-09 3.5084064913291275e-03 0.0000000000000000e+00  -5.3018956712240201e-09 3.4882168753643393e-03 0.0000000000000000e+00  -6.5815977280833027e-09 3.4882169240856198e-03 0.0000000000000000e+00  -5.9383730772910762e-09 3.4776202414852834e-03 0.0000000000000000e+00  -6.5027645144611650e-09 3.4666818040436408e-03 0.0000000000000000e+00  -4.6373013974809072e-09 3.5180102939642156e-03 0.0000000000000000e+00  -4.6541536792913291e-09 3.4984771524133921e-03 0.0000000000000000e+00  -3.9877545092607909e-09 3.5084065741778363e-03 0.0000000000000000e+00  -6.5135629526168794e-09 3.3662185038840688e-03 0.0000000000000000e+00  -6.5077512745654059e-09 3.3373049081026258e-03 0.0000000000000000e+00  -5.8793732068056632e-09 3.3518895205126480e-03 0.0000000000000000e+00  -5.8661833790405775e-09 3.3221745042433075e-03 0.0000000000000000e+00  -6.4984500383401994e-09 3.3067854242599583e-03 0.0000000000000000e+00  -5.2492123922262065e-09 3.3371606138789226e-03 0.0000000000000000e+00  -5.8410007089907007e-09 3.2908317900427679e-03 0.0000000000000000e+00  -5.2241705214437763e-09 3.3066332016159984e-03 0.0000000000000000e+00  -5.1162065988014821e-09 3.2744563124845767e-03 0.0000000000000000e+00  -6.4831689609760309e-09 3.2746166554191171e-03 0.0000000000000000e+00  -5.7469801484067976e-09 3.2578180188961468e-03 0.0000000000000000e+00  -6.5720259024924838e-09 3.2407552848715865e-03 0.0000000000000000e+00  -4.6328497884731399e-09 3.3220262771240039e-03 0.0000000000000000e+00  -4.5352956017813993e-09 3.2906755177393044e-03 0.0000000000000000e+00  -4.0108173385120362e-09 3.3064810832287087e-03 0.0000000000000000e+00  -6.8037434940123524e-09 3.6458495006692635e-03 0.0000000000000000e+00  -6.7624255313381317e-09 3.6367276111374872e-03 0.0000000000000000e+00  -6.1006233644679119e-09 3.6413997619781061e-03 0.0000000000000000e+00  -6.0935888333291892e-09 3.6318275597520952e-03 0.0000000000000000e+00  -6.7425094931288799e-09 3.6266942500063977e-03 0.0000000000000000e+00  -5.4336735952754672e-09 3.6367275789274292e-03 0.0000000000000000e+00  -6.0778301358486333e-09 3.6213221905936005e-03 0.0000000000000000e+00  -5.4314141801550095e-09 3.6266942192684608e-03 0.0000000000000000e+00  -5.4306837540833366e-09 3.6157059881784699e-03 0.0000000000000000e+00  -6.7212582729226214e-09 3.6157060240018996e-03 0.0000000000000000e+00  -6.0715182658356615e-09 3.6098402501678582e-03 0.0000000000000000e+00  -6.6698434078164871e-09 3.6037195162572071e-03 0.0000000000000000e+00  -4.7741337166858566e-09 3.6318275420687243e-03 0.0000000000000000e+00  -4.7841702376593153e-09 3.6213221721281305e-03 0.0000000000000000e+00  -4.1277318997565007e-09 3.6266942875646069e-03 0.0000000000000000e+00  -3.8060661511500961e-09 3.2742243853840563e-03 0.0000000000000000e+00  -4.3700220617298413e-09 3.2575799410008936e-03 0.0000000000000000e+00  -3.6768782394002753e-09 3.2402670941322200e-03 0.0000000000000000e+00  -4.9688031312608724e-09 3.2405111319351700e-03 0.0000000000000000e+00  -4.2517058150890295e-09 3.2227621104235580e-03 0.0000000000000000e+00  -4.9200062112708023e-09 3.2048220256038419e-03 0.0000000000000000e+00  -5.6524550628226058e-09 3.2230124731654542e-03 0.0000000000000000e+00  -3.5521423624958937e-09 3.2045655355718099e-03 0.0000000000000000e+00  -4.1958436356430163e-09 3.1861784008329311e-03 0.0000000000000000e+00  -3.5462720368870273e-09 3.1670760666298327e-03 0.0000000000000000e+00  -6.3521403324098277e-09 3.2051577932437634e-03 0.0000000000000000e+00  -5.6278597835473577e-09 3.1865224448077733e-03 0.0000000000000000e+00  -6.2685403142745703e-09 3.1677807404885345e-03 0.0000000000000000e+00  -5.5961726877708118e-09 3.1482309608025778e-03 0.0000000000000000e+00  -4.9452286137094142e-09 3.1674284491303626e-03 0.0000000000000000e+00  -5.1522631325357274e-09 3.1282114519173179e-03 0.0000000000000000e+00  -6.1884651560973186e-09 3.1285807217842762e-03 0.0000000000000000e+00  -5.7471517448426220e-09 3.1080945225018435e-03 0.0000000000000000e+00  -5.7140915784422440e-09 3.0875140057345847e-03 0.0000000000000000e+00  -4.4336197490303340e-09 3.1478702069576356e-03 0.0000000000000000e+00  -7.1097102622665995e-09 1.8074200151933779e-03 0.0000000000000000e+00  -6.6540169914345729e-09 1.7171351686679180e-03 0.0000000000000000e+00  -5.8985516350300283e-09 1.7626274239133793e-03 0.0000000000000000e+00  -5.8877290706127511e-09 1.6709372806329498e-03 0.0000000000000000e+00  -6.4795077441832653e-09 1.6240289423971783e-03 0.0000000000000000e+00  -5.1562142498198844e-09 1.7171348740767575e-03 0.0000000000000000e+00  -5.7942196301076308e-09 1.5764041344956442e-03 0.0000000000000000e+00  -5.2402783908366573e-09 1.6240286983665742e-03 0.0000000000000000e+00  -5.4907138102481407e-09 1.5280577365960398e-03 0.0000000000000000e+00  -6.2896266894408804e-09 1.5280580244957406e-03 0.0000000000000000e+00  -5.9135033555258963e-09 1.4789844686056623e-03 0.0000000000000000e+00  -5.4593049676014578e-09 1.4291785894674743e-03 0.0000000000000000e+00  -4.5131634537425816e-09 1.6709370422610689e-03 0.0000000000000000e+00  -4.9158039796893580e-09 1.5764039698559025e-03 0.0000000000000000e+00  -4.0786179576458640e-09 1.6240284851684081e-03 0.0000000000000000e+00  -6.7512813787176825e-09 2.4333465817268432e-03 0.0000000000000000e+00  -6.6988793446152582e-09 2.3640684980937928e-03 0.0000000000000000e+00  -6.0151770868653444e-09 2.3990140927893002e-03 0.0000000000000000e+00  -6.0674471473506928e-09 2.3285044242769321e-03 0.0000000000000000e+00  -6.7147868715562399e-09 2.2923164036227654e-03 0.0000000000000000e+00  -5.3839639960787492e-09 2.3640685273976030e-03 0.0000000000000000e+00  -6.0964937467592559e-09 2.2554990611096683e-03 0.0000000000000000e+00  -5.4540716479685446e-09 2.2923164375187517e-03 0.0000000000000000e+00  -5.5253567458372105e-09 2.2180469467842604e-03 0.0000000000000000e+00  -6.7281588731279609e-09 2.2180469246949742e-03 0.0000000000000000e+00  -6.1473678423596687e-09 2.1799545983931605e-03 0.0000000000000000e+00  -6.6615740785540698e-09 2.1412166241648136e-03 0.0000000000000000e+00  -4.7766160983186458e-09 2.3285044379221368e-03 0.0000000000000000e+00  -4.8827694908513426e-09 2.2554990719717244e-03 0.0000000000000000e+00  -4.2063695784656706e-09 2.2923162215046358e-03 0.0000000000000000e+00  -1.8037811218629691e-09 3.6912206006076711e-03 0.0000000000000000e+00  -1.6982940111945774e-09 3.6940925788387638e-03 0.0000000000000000e+00  -2.3335708517822782e-09 3.6927189726313650e-03 0.0000000000000000e+00  -2.3599773454337185e-09 3.6953467836717763e-03 0.0000000000000000e+00  -1.6906020810014782e-09 3.6964870623026392e-03 0.0000000000000000e+00  -2.9646568294947615e-09 3.6940925464962566e-03 0.0000000000000000e+00  -2.3830960876971274e-09 3.6975188294885294e-03 0.0000000000000000e+00  -3.0151134596554119e-09 3.6964870842892770e-03 0.0000000000000000e+00  -3.1286547954531675e-09 3.6984475416344271e-03 0.0000000000000000e+00  -1.7021902537271947e-09 3.6984474776563152e-03 0.0000000000000000e+00  -2.4809452894472416e-09 3.6992784806878444e-03 0.0000000000000000e+00  -1.5436218074854374e-09 3.7000170677985991e-03 0.0000000000000000e+00  -3.5844141591320393e-09 3.6953467687066105e-03 0.0000000000000000e+00  -3.7174855808297224e-09 3.6975188904506111e-03 0.0000000000000000e+00  -4.2287865629698231e-09 3.6964870495435924e-03 0.0000000000000000e+00  -1.6824507934884396e-09 3.6458495930551970e-03 0.0000000000000000e+00  -1.6637035725534347e-09 3.6541034514970825e-03 0.0000000000000000e+00  -2.2798238904724986e-09 3.6500823244189269e-03 0.0000000000000000e+00  -2.2994814762768414e-09 3.6579184214671086e-03 0.0000000000000000e+00  -1.6709316967457231e-09 3.6615326405603785e-03 0.0000000000000000e+00  -2.9153813251134978e-09 3.6541034627803294e-03 0.0000000000000000e+00  -2.3110679290507900e-09 3.6649515578647319e-03 0.0000000000000000e+00  -2.9395692056240992e-09 3.6615326553712719e-03 0.0000000000000000e+00  -2.9623442679808804e-09 3.6681805875441059e-03 0.0000000000000000e+00  -1.6786224020097133e-09 3.6681805740878125e-03 0.0000000000000000e+00  -2.3287783742991507e-09 3.6712251366214058e-03 0.0000000000000000e+00  -1.6671093131356964e-09 3.6740906464456566e-03 0.0000000000000000e+00  -3.5577887230638965e-09 3.6579184268831460e-03 0.0000000000000000e+00  -3.5908419738710231e-09 3.6649515657298242e-03 0.0000000000000000e+00  -4.2106537012886763e-09 3.6615325884782504e-03 0.0000000000000000e+00  -7.2895740448241160e-09 2.9037174792505807e-03 0.0000000000000000e+00  -6.7916299168983851e-09 2.8526688539644647e-03 0.0000000000000000e+00  -5.9038776512958489e-09 2.8784487981056233e-03 0.0000000000000000e+00  -6.0549231256847899e-09 2.8263416634712428e-03 0.0000000000000000e+00  -6.7177193718695834e-09 2.7994931458968008e-03 0.0000000000000000e+00  -5.1781837295662044e-09 2.8526533884323134e-03 0.0000000000000000e+00  -6.0371677422579769e-09 2.7720859450827860e-03 0.0000000000000000e+00  -5.3991507357536918e-09 2.7994770506292593e-03 0.0000000000000000e+00  -5.5018691412376963e-09 2.7441304288803414e-03 0.0000000000000000e+00  -6.6330903989694393e-09 2.7441472378419017e-03 0.0000000000000000e+00  -6.0749083932552822e-09 2.7156383013609152e-03 0.0000000000000000e+00  -6.2988286897617695e-09 2.6865876322964004e-03 0.0000000000000000e+00  -4.5820862976093516e-09 2.8263259257831127e-03 0.0000000000000000e+00  -4.8971562744114127e-09 2.7720694977996681e-03 0.0000000000000000e+00  -4.1892373843144676e-09 2.7994608875243645e-03 0.0000000000000000e+00  -1.5675552947276131e-09 3.5449230050418456e-03 0.0000000000000000e+00  -1.5420806091986305e-09 3.5613365969520239e-03 0.0000000000000000e+00  -2.1514395037960940e-09 3.5532790093139393e-03 0.0000000000000000e+00  -2.1787343664138790e-09 3.5691012245305646e-03 0.0000000000000000e+00  -1.5516703494530111e-09 3.5765782918546402e-03 0.0000000000000000e+00  -2.7888391157144966e-09 3.5613366124048148e-03 0.0000000000000000e+00  -2.1938228575816391e-09 3.5837732549047446e-03 0.0000000000000000e+00  -2.8217075244986266e-09 3.5765783100673611e-03 0.0000000000000000e+00  -2.8515651828600480e-09 3.5906915230737649e-03 0.0000000000000000e+00  -1.5610816196219987e-09 3.5906915090229397e-03 0.0000000000000000e+00  -2.2174381308592040e-09 3.5973385049245217e-03 0.0000000000000000e+00  -1.5413607556976908e-09 3.6037196395915911e-03 0.0000000000000000e+00  -3.4352605738198901e-09 3.5691012294751488e-03 0.0000000000000000e+00  -3.4797541865139598e-09 3.5837732591903230e-03 0.0000000000000000e+00  -4.0953557375955058e-09 3.5765782072133632e-03 0.0000000000000000e+00  -1.3913792794752241e-09 3.3662186499927959e-03 0.0000000000000000e+00  -1.3909452905402703e-09 3.3935696975300332e-03 0.0000000000000000e+00  -2.0355248202144275e-09 3.3800757019248158e-03 0.0000000000000000e+00  -2.0304803164673246e-09 3.4066624087030284e-03 0.0000000000000000e+00  -1.3951958399200819e-09 3.4194016721162874e-03 0.0000000000000000e+00  -2.6722266751093890e-09 3.3935481844040707e-03 0.0000000000000000e+00  -2.0387574552643521e-09 3.4317517119986881e-03 0.0000000000000000e+00  -2.6692822388362108e-09 3.4193813773126533e-03 0.0000000000000000e+00  -2.7036838456262468e-09 3.4437388393485178e-03 0.0000000000000000e+00  -1.4014335581724606e-09 3.4437579543274291e-03 0.0000000000000000e+00  -2.0688715884935486e-09 3.4553869947973916e-03 0.0000000000000000e+00  -1.3603466250918993e-09 3.4666819194440518e-03 0.0000000000000000e+00  -3.2999057809223029e-09 3.4066414946161165e-03 0.0000000000000000e+00  -3.3220917598422670e-09 3.4317320065954918e-03 0.0000000000000000e+00  -3.9233732753567259e-09 3.4193609907005843e-03 0.0000000000000000e+00  -4.2368592785466316e-09 2.6267622242501722e-03 0.0000000000000000e+00  -3.6334964388110087e-09 2.6569554115231683e-03 0.0000000000000000e+00  -4.3139424846685949e-09 2.6865702505493427e-03 0.0000000000000000e+00  -2.9837506690076282e-09 2.6865788791581901e-03 0.0000000000000000e+00  -3.6672069673803539e-09 2.7156296942053839e-03 0.0000000000000000e+00  -2.9021568564198481e-09