<?xml version="1.0"?>
<VTKFile type="UnstructuredGrid"  version="0.1"  >
<UnstructuredGrid>
<Piece  NumberOfPoints="1473" NumberOfCells="2752">
<Points>
<DataArray  type="Float64"  NumberOfComponents="3"  format="ascii">18.93749999999868 1.858253175473055 0  18.8749999999983 2 0  18.99999999999849 2 0  18.81249999999849 1.858253175473055 0  18.74999999999811 2 0  18.87499999999887 1.71650635094611 0  18.74999999999868 1.71650635094611 0  18.6874999999983 1.858253175473055 0  18.62499999999849 1.71650635094611 0  18.62499999999792 2 0  18.56249999999811 1.858253175473055 0  18.49999999999773 2 0  18.81249999999906 1.574759526419165 0  18.68749999999887 1.574759526419165 0  18.74999999999925 1.433012701892219 0  18.43749999999792 1.858253175473055 0  18.4999999999983 1.71650635094611 0  18.37499999999811 1.71650635094611 0  18.56249999999868 1.574759526419165 0  18.43749999999849 1.574759526419165 0  18.49999999999887 1.433012701892219 0  18.37499999999868 1.433012701892219 0  18.3124999999983 1.574759526419165 0  18.24999999999849 1.433012701892219 0  18.62499999999906 1.433012701892219 0  18.37499999999755 2 0  18.31249999999773 1.858253175473055 0  18.24999999999736 2 0  18.18749999999755 1.858253175473055 0  18.24999999999792 1.71650635094611 0  18.12499999999773 1.71650635094611 0  18.12499999999717 2 0  18.06249999999736 1.858253175473055 0  17.99999999999698 2 0  18.18749999999811 1.574759526419165 0  18.68749999999944 1.291265877365274 0  18.56249999999925 1.291265877365274 0  18.62499999999962 1.149519052838329 0  18.49999999999944 1.149519052838329 0  18.43749999999906 1.291265877365274 0  18.37499999999925 1.149519052838329 0  18.31249999999887 1.291265877365274 0  18.56249999999981 1.007772228311384 0  18.43749999999962 1.007772228311384 0  18.5 0.8660254037844386 0  16.93749999999588 1.873260355581349 0  16.87499999999528 2 0  16.99999999999547 2 0  16.81249999999569 1.873260355581349 0  16.74999999999509 2 0  16.87499999999629 1.746520711162699 0  16.7499999999961 1.746520711162699 0  16.6874999999955 1.873260355581349 0  16.62499999999591 1.746520711162699 0  16.6249999999949 2 0  16.56249999999531 1.873260355581349 0  16.49999999999471 2 0  16.8124999999967 1.619781066744049 0  16.6874999999965 1.619781066744049 0  16.7499999999971 1.493041422325399 0  16.43749999999512 1.873260355581349 0  16.49999999999572 1.746520711162699 0  16.37499999999553 1.746520711162699 0  16.56249999999632 1.619781066744049 0  16.43749999999613 1.619781066744049 0  16.49999999999672 1.493041422325399 0  16.37499999999654 1.493041422325399 0  16.31249999999594 1.619781066744049 0  16.24999999999635 1.493041422325399 0  16.62499999999691 1.493041422325399 0  16.37499999999453 2 0  16.31249999999493 1.873260355581349 0  16.24999999999434 2 0  16.18749999999475 1.873260355581349 0  16.24999999999534 1.746520711162699 0  16.12499999999515 1.746520711162699 0  16.12499999999415 2 0  16.06249999999456 1.873260355581349 0  15.99999999999396 2 0  16.18749999999575 1.619781066744049 0  16.68749999999751 1.366301777906748 0  16.56249999999732 1.366301777906748 0  16.62499999999792 1.239562133488098 0  16.49999999999773 1.239562133488098 0  16.43749999999713 1.366301777906748 0  16.37499999999754 1.239562133488098 0  16.31249999999694 1.366301777906748 0  16.56249999999833 1.112822489069448 0  16.43749999999814 1.112822489069448 0  16.49999999999874 0.9860828446507974 0  12.93749999999038 1.87326035558127 0  12.8749999999892 2 0  12.99999999998939 2 0  12.81249999999018 1.87326035558127 0  12.74999999998901 2 0  12.87499999999136 1.74652071116254 0  12.74999999999117 1.74652071116254 0  12.68749999999 1.87326035558127 0  12.62499999999098 1.74652071116254 0  12.62499999998882 2 0  12.5624999999898 1.87326035558127 0  12.49999999998862 2 0  12.81249999999235 1.61978106674381 0  12.68749999999216 1.61978106674381 0  12.74999999999334 1.49304142232508 0  12.43749999998961 1.87326035558127 0  12.49999999999079 1.74652071116254 0  12.3749999999906 1.74652071116254 0  12.56249999999196 1.61978106674381 0  12.43749999999178 1.61978106674381 0  12.49999999999295 1.49304142232508 0  12.37499999999276 1.49304142232508 0  12.31249999999158 1.61978106674381 0  12.24999999999257 1.49304142232508 0  12.62499999999315 1.49304142232508 0  12.37499999998843 2 0  12.31249999998942 1.87326035558127 0  12.24999999998824 2 0  12.18749999998923 1.87326035558127 0  12.24999999999041 1.74652071116254 0  12.12499999999022 1.74652071116254 0  12.12499999998805 2 0  12.06249999998904 1.87326035558127 0  11.99999999998786 2 0  12.1874999999914 1.61978106674381 0  12.68749999999433 1.36630177790635 0  12.56249999999413 1.36630177790635 0  12.62499999999531 1.239562133487619 0  12.49999999999512 1.239562133487619 0  12.43749999999394 1.36630177790635 0  12.37499999999493 1.239562133487619 0  12.31249999999375 1.36630177790635 0  12.56249999999629 1.112822489068889 0  12.43749999999611 1.112822489068889 0  12.49999999999728 0.9860828446501591 0  10.87499999998615 2 0  10.8121964885518 1.874866173617996 0  10.74999999998596 2 0  10.93719648855199 1.874866173617996 0  10.87439297711764 1.749732347235992 0  10.99999999998634 2 0  10.74939297711745 1.749732347235992 0  10.6871964885516 1.874866173617996 0  10.62439297711725 1.749732347235992 0  10.56219648855141 1.874866173617996 0  10.62499999998577 2 0  10.49999999998558 2 0  10.68658946568309 1.624598520853987 0  10.81158946568329 1.624598520853987 0  10.74878595424893 1.499464694471983 0  10.49939297711706 1.749732347235992 0  10.43719648855122 1.874866173617996 0  10.37439297711687 1.749732347235992 0  10.43658946568271 1.624598520853987 0  10.5615894656829 1.624598520853987 0  10.49878595424855 1.499464694471983 0  10.37378595424836 1.499464694471983 0  10.31158946568252 1.624598520853987 0  10.24878595424817 1.499464694471983 0  10.62378595424874 1.499464694471983 0  10.31219648855103 1.874866173617996 0  10.37499999998539 2 0  10.2499999999852 2 0  10.24939297711668 1.749732347235992 0  10.18719648855085 1.874866173617996 0  10.1243929771165 1.749732347235992 0  10.06219648855066 1.874866173617996 0  10.12499999998501 2 0  9.999999999984821 2 0  10.18658946568234 1.624598520853987 0  10.56098244281439 1.374330868089979 0  10.68598244281458 1.374330868089979 0  10.62317893138022 1.249197041707975 0  10.49817893138003 1.249197041707975 0  10.4359824428142 1.374330868089979 0  10.37317893137984 1.249197041707975 0  10.31098244281401 1.374330868089979 0  10.43537541994568 1.124063215325971 0  10.56037541994587 1.124063215325971 0  10.49757190851152 0.9989293889439668 0  14.93749999999313 1.87326035558131 0  14.87499999999224 2 0  14.99999999999243 2 0  14.81249999999294 1.87326035558131 0  14.74999999999205 2 0  14.87499999999383 1.74652071116262 0  14.74999999999364 1.74652071116262 0  14.68749999999275 1.87326035558131 0  14.62499999999345 1.74652071116262 0  14.62499999999186 2 0  14.56249999999256 1.87326035558131 0  14.49999999999167 2 0  14.81249999999453 1.61978106674393 0  14.68749999999434 1.61978106674393 0  14.74999999999522 1.493041422325239 0  14.43749999999237 1.87326035558131 0  14.49999999999326 1.74652071116262 0  14.37499999999307 1.74652071116262 0  14.56249999999415 1.61978106674393 0  14.43749999999396 1.61978106674393 0  14.49999999999484 1.493041422325239 0  14.37499999999465 1.493041422325239 0  14.31249999999376 1.61978106674393 0  14.24999999999446 1.493041422325239 0  14.62499999999503 1.493041422325239 0  14.37499999999148 2 0  14.31249999999218 1.87326035558131 0  14.24999999999129 2 0  14.18749999999199 1.87326035558131 0  14.24999999999288 1.74652071116262 0  14.12499999999268 1.74652071116262 0  14.1249999999911 2 0  14.0624999999918 1.87326035558131 0  13.99999999999091 2 0  14.18749999999357 1.61978106674393 0  14.68749999999591 1.366301777906548 0  14.56249999999573 1.366301777906548 0  14.62499999999661 1.239562133487858 0  14.49999999999643 1.239562133487858 0  14.43749999999554 1.366301777906548 0  14.37499999999624 1.239562133487858 0  14.31249999999535 1.366301777906548 0  14.56249999999731 1.112822489069168 0  14.43749999999713 1.112822489069168 0  14.49999999999801 0.9860828446504779 0  10.37230054746122 0.9958730922567091 0  10.31010405889538 1.121006918638713 0  10.24702918641092 0.9928167955694513 0  10.18483269784508 1.117950621951456 0  10.24790757032954 1.246140745020718 0  10.12263620927924 1.24308444833346 0  10.1857110817637 1.371274571402721 0  10.12175782536062 0.9897604988821938 0  10.05956133679478 1.114894325264198 0  9.996486464310319 0.986704202194936 0  10.0604397207134 1.368218274715464 0  10.12351459319787 1.496408397784725 0  9.998243232147571 1.493352101097468 0  9.997364848228942 1.240028151646202 0  9.935168359663109 1.365161978028206 0  9.934289975744482 1.11183802857694 0  10.06131810463204 1.62154222416673 0  9.999121616066198 1.746676050548734 0  9.936046743581734 1.618485927479472 0  9.936925127500359 1.871809876930738 0  17.06249999999989 0.1296923558171043 0  17.12499999999999 0 0  16.99999999999999 0 0  17.18749999999989 0.1296923558171043 0  17.24999999999999 0 0  17.1249999999998 0.2593847116342085 0  17.24999999999981 0.2593847116342085 0  17.3124999999999 0.1296923558171043 0  17.37499999999981 0.2593847116342085 0  17.37499999999999 0 0  17.4374999999999 0.1296923558171043 0  17.49999999999999 0 0  17.18749999999971 0.3890770674513128 0  17.31249999999972 0.3890770674513128 0  17.24999999999962 0.518769423268417 0  17.5624999999999 0.1296923558171043 0  17.49999999999981 0.2593847116342085 0  17.62499999999981 0.2593847116342085 0  17.43749999999972 0.3890770674513128 0  17.56249999999972 0.3890770674513128 0  17.49999999999962 0.518769423268417 0  17.62499999999962 0.518769423268417 0  17.68749999999972 0.3890770674513128 0  17.74999999999962 0.518769423268417 0  17.37499999999962 0.518769423268417 0  17.62499999999999 0 0  17.68749999999991 0.1296923558171043 0  17.75 0 0  17.81249999999991 0.1296923558171043 0  17.74999999999981 
[...]
<PointData  Vectors="t"> 
<DataArray  type="Float64"  Name="t"  NumberOfComponents="3" format="ascii">4.6645922362784408e-09 3.7031461163947905e-03 0.0000000000000000e+00  2.5777375039598805e-09 3.7030410485228244e-03 0.0000000000000000e+00  -7.5136802078584201e-11 3.7032341492083867e-03 0.0000000000000000e+00  3.2764620951151117e-09 3.7029294194905631e-03 0.0000000000000000e+00  1.2910521630600437e-09 3.7028023935637951e-03 0.0000000000000000e+00  2.3710539061041363e-09 3.7030446948457646e-03 0.0000000000000000e+00  2.6430179349890943e-09 3.7027978317779168e-03 0.0000000000000000e+00  -4.7895787292250209e-10 3.7026602594072478e-03 0.0000000000000000e+00  1.5092704237216520e-09 3.7024998939975346e-03 0.0000000000000000e+00  1.4008126656802020e-09 3.7024995094012939e-03 0.0000000000000000e+00  3.6217277206028209e-09 3.7023314749072985e-03 0.0000000000000000e+00  2.0577695749455098e-09 3.7021456931768761e-03 0.0000000000000000e+00  4.3338243907691900e-09 3.7029286558768510e-03 0.0000000000000000e+00  4.6455310181218101e-09 3.7026594363998009e-03 0.0000000000000000e+00  3.9553210649841885e-09 3.7028009253624828e-03 0.0000000000000000e+00  -4.2065552196307906e-10 3.7019421535379824e-03 0.0000000000000000e+00  2.3756496379918257e-09 3.7021404837971408e-03 0.0000000000000000e+00  3.6372470294819858e-09 3.7017216904420185e-03 0.0000000000000000e+00  6.1500219948742877e-10 3.7023317170108397e-03 0.0000000000000000e+00  4.7882534003387298e-09 3.7019411802330397e-03 0.0000000000000000e+00  4.7730383921397185e-09 3.7021454521822725e-03 0.0000000000000000e+00  3.3202679792930867e-09 3.7017164434767101e-03 0.0000000000000000e+00  5.9327096824867722e-10 3.7014836285680121e-03 0.0000000000000000e+00  8.9542044483834948e-10 3.7012273480452971e-03 0.0000000000000000e+00  3.7306968929404666e-09 3.7024995271071606e-03 0.0000000000000000e+00  1.6333682081519025e-09 3.7017170954320487e-03 0.0000000000000000e+00  4.2454603126151583e-09 3.7014831652056571e-03 0.0000000000000000e+00  3.0391651853721518e-09 3.7012277742167030e-03 0.0000000000000000e+00  -3.6704732820343773e-10 3.7009523395236522e-03 0.0000000000000000e+00  2.4537458122657022e-09 3.7012218357084375e-03 0.0000000000000000e+00  -1.2462428669238619e-10 3.7006572816456603e-03 0.0000000000000000e+00  2.4713375550895955e-09 3.7006519950878035e-03 0.0000000000000000e+00  5.0018932462949370e-09 3.7003405216304215e-03 0.0000000000000000e+00  5.1518008477947139e-09 3.7000047076076099e-03 0.0000000000000000e+00  5.3256769544945450e-09 3.7009507031871549e-03 0.0000000000000000e+00  5.4123681277593895e-09 3.7026588954765282e-03 0.0000000000000000e+00  6.0560807751789583e-09 3.7023319355950785e-03 0.0000000000000000e+00  5.7647499897179386e-09 3.7025028732715409e-03 0.0000000000000000e+00  4.6060680783795033e-09 3.7021411413285066e-03 0.0000000000000000e+00  1.9867946219701621e-09 3.7019421535458468e-03 0.0000000000000000e+00  2.3541701971667393e-09 3.7017216249813959e-03 0.0000000000000000e+00  6.2503444801045894e-09 3.7014823492193707e-03 0.0000000000000000e+00  7.1767034070916941e-09 3.7023321259375512e-03 0.0000000000000000e+00  7.7228389352289811e-09 3.7019412189556776e-03 0.0000000000000000e+00  6.3242649002162169e-09 3.7021451228032272e-03 0.0000000000000000e+00  -2.5394545423151387e-09 3.6904129900651476e-03 0.0000000000000000e+00  1.0298721574369786e-09 3.6895743490718939e-03 0.0000000000000000e+00  -3.4137209718481614e-09 3.6912104960927414e-03 0.0000000000000000e+00  5.9806223339867994e-09 3.6887182103931678e-03 0.0000000000000000e+00  5.6363511203921240e-09 3.6878190400519593e-03 0.0000000000000000e+00  2.1497815107649968e-09 3.6895741173027428e-03 0.0000000000000000e+00  2.2540295240161106e-09 3.6878100587632275e-03 0.0000000000000000e+00  -2.8215404780254130e-09 3.6868845532460172e-03 0.0000000000000000e+00  2.2548039693236229e-09 3.6859048160095944e-03 0.0000000000000000e+00  1.3000974855925342e-09 3.6859049375743613e-03 0.0000000000000000e+00  6.4515026641716031e-09 3.6849070740543853e-03 0.0000000000000000e+00  6.0869948080021272e-09 3.6838627475713932e-03 0.0000000000000000e+00  -1.6245417887360761e-09 3.6887176631380902e-03 0.0000000000000000e+00  7.2218651805499614e-09 3.6868844981564303e-03 0.0000000000000000e+00  3.1602300082325551e-09 3.6878099528106696e-03 0.0000000000000000e+00  -3.0417511163758163e-09 3.6827804134926486e-03 0.0000000000000000e+00  2.3026018737611974e-09 3.6838530827594694e-03 0.0000000000000000e+00  7.2086518007720474e-09 3.6816593517507864e-03 0.0000000000000000e+00  -1.7888113955495906e-09 3.6849067968946496e-03 0.0000000000000000e+00  7.5963307861946602e-09 3.6827803158638486e-03 0.0000000000000000e+00  7.9443237630477101e-09 3.6838626377470479e-03 0.0000000000000000e+00  3.2818551500691504e-09 3.6816493539112462e-03 0.0000000000000000e+00  -2.2484021204959077e-09 3.6804990409178540e-03 0.0000000000000000e+00  -1.8535860902586837e-09 3.6792987017156471e-03 0.0000000000000000e+00  3.2694683031593942e-09 3.6859047787536283e-03 0.0000000000000000e+00  1.4361563311032268e-09 3.6816495341370973e-03 0.0000000000000000e+00  6.8869114532569234e-09 3.6804990830069800e-03 0.0000000000000000e+00  6.5190963997673857e-09 3.6792988019078124e-03 0.0000000000000000e+00  -3.2942094080841587e-09 3.6780577405702195e-03 0.0000000000000000e+00  2.3695090897732312e-09 3.6792884317865802e-03 0.0000000000000000e+00  -2.9245813642102535e-09 3.6767753383571506e-03 0.0000000000000000e+00  1.5681038248290730e-09 3.6767647841161560e-03 0.0000000000000000e+00  7.3277725252217111e-09 3.6754507975710112e-03 0.0000000000000000e+00  7.0704677727581507e-09 3.6740836927313565e-03 0.0000000000000000e+00  8.0101632700875553e-09 3.6780575688552452e-03 0.0000000000000000e+00  -8.3192944488393079e-10 3.6868839445699038e-03 0.0000000000000000e+00  8.3831363214154812e-09 3.6849069898155081e-03 0.0000000000000000e+00  4.1523610075172129e-09 3.6859047217508941e-03 0.0000000000000000e+00  4.2323822380569419e-09 3.6838530026230215e-03 0.0000000000000000e+00  -1.1374830944276708e-09 3.6827803123913542e-03 0.0000000000000000e+00  -7.3707329647457901e-10 3.6816593008004357e-03 0.0000000000000000e+00  8.7562397362053524e-09 3.6804988885637234e-03 0.0000000000000000e+00  -1.8688316985323328e-13 3.6849064341485552e-03 0.0000000000000000e+00  9.5806389412720168e-09 3.6827801936098765e-03 0.0000000000000000e+00  5.3060859870921615e-09 3.6838528814145807e-03 0.0000000000000000e+00  -7.5215914788569640e-09 3.5406324258619470e-03 0.0000000000000000e+00  1.4130263118298756e-09 3.5362453383331080e-03 0.0000000000000000e+00  -8.0995959997247738e-09 3.5449238749302413e-03 0.0000000000000000e+00  1.1619752617235036e-08 3.5318193557901134e-03 0.0000000000000000e+00  1.1267760878629516e-08 3.5272960405181952e-03 0.0000000000000000e+00  2.4100184946588409e-09 3.5362452275573765e-03 0.0000000000000000e+00  2.4606702214677303e-09 3.5272762228535995e-03 0.0000000000000000e+00  -7.8966588167116986e-09 3.5226940239000497e-03 0.0000000000000000e+00  2.4759755416936568e-09 3.5179925221798260e-03 0.0000000000000000e+00  1.5502172467315046e-09 3.5179925949759996e-03 0.0000000000000000e+00  1.2040548234178130e-08 3.5132512645873644e-03 0.0000000000000000e+00  1.1683588856688142e-08 3.5084092129817599e-03 0.0000000000000000e+00  -6.7137255612568040e-09 3.5318190221839746e-03 0.0000000000000000e+00  1.2744307987518520e-08 3.5226939738522540e-03 0.0000000000000000e+00  3.3447041983430889e-09 3.5272761689204833e-03 0.0000000000000000e+00  -8.1489356808362072e-09 3.5034857406543258e-03 0.0000000000000000e+00  2.4922191051975406e-09 3.5083887081770100e-03 0.0000000000000000e+00  1.2770127798479469e-08 3.4984801616437639e-03 0.0000000000000000e+00  -6.9737811129302580e-09 3.5132510505037537e-03 0.0000000000000000e+00  1.3098259841431509e-08 3.5034856695411293e-03 0.0000000000000000e+00  1.3454188661427392e-08 3.5084091416181760e-03 0.0000000000000000e+00  3.3677250742973940e-09 3.4984593601092833e-03 0.0000000000000000e+00  -7.4429504729188661e-09 3.4933918976627096e-03 0.0000000000000000e+00  -7.1578537026806980e-09 3.4882202771825306e-03 0.0000000000000000e+00  3.3785773164461250e-09 3.5179924968509638e-03 0.0000000000000000e+00  1.6499628286189442e-09 3.4984594673250656e-03 0.0000000000000000e+00  1.2462281315369980e-08 3.4933919267011717e-03 0.0000000000000000e+00  1.2121445843559994e-08 3.4882203105593142e-03 0.0000000000000000e+00  -8.4170457228493820e-09 3.4829645040992206e-03 0.0000000000000000e+00  2.5227868246588301e-09 3.4881990889402133e-03 0.0000000000000000e+00  -8.1578451131881735e-09 3.4776239713330262e-03 0.0000000000000000e+00  1.8388287099190391e-09 3.4776025521109331e-03 0.0000000000000000e+00  1.2956640656935592e-08 3.4721977367482663e-03 0.0000000000000000e+00  1.2908972987803928e-08 3.4666856492769653e-03 0.0000000000000000e+00  1.3552498026356308e-08 3.4829642719535264e-03 0.0000000000000000e+00  -5.9766065083963396e-09 3.5226936640224125e-03 0.0000000000000000e+00  1.3799358978592465e-08 3.5132512250976933e-03 0.0000000000000000e+00  4.2430529566156473e-09 3.5179924541257099e-03 0.0000000000000000e+00  4.2600097952343482e-09 3.5083887012778273e-03 0.0000000000000000e+00  -6.4238815782756675e-09 3.5034856671823985e-03 0.0000000000000000e+00  -6.1043290338159651e-09 3.4984802294518165e-03 0.0000000000000000e+00  1.4237530719060671e-08 3.4933917255888045e-03 0.0000000000000000e+00  -5.2637675510775049e-09 3.5132509326268619e-03 0.0000000000000000e+00  1.4956333617544235e-08 3.5034855263643937e-03 0.0000000000000000e+00  5.1543600605033128e-09 3.5083886041320845e-03 0.0000000000000000e+00  1.6066540774220470e-09 3.3519417747335696e-03 0.0000000000000000e+00  1.4528019523788865e-08 3.3446537007475294e-03 0.0000000000000000e+00  1.4150368399598014e-08 3.3373121546227680e-03 0.0000000000000000e+00  -1.0225005400431446e-08 3.3591103897642966e-03 0.0000000000000000e+00  2.3785401895093778e-09 3.3518715615581665e-03 0.0000000000000000e+00  -1.0580827166676568e-08 3.3662249520879550e-03 0.0000000000000000e+00  2.4360393652260227e-09 3.3372148968574323e-03 0.0000000000000000e+00  -1.0755899985799481e-08 3.3297981318640207e-03 0.0000000000000000e+00  2.3392913490229720e-09 3.3221565729965276e-03 0.0000000000000000e+00  1.4778697834501461e-08 3.3145384512239758e-03 0.0000000000000000e+00  1.5204386035484921e-09 3.3222306123250377e-03 0.0000000000000000e+00  1.4400301542306826e-08 3.3067932817310067e-03 0.0000000000000000e+00  1.5558192273793326e-08 3.3297251079324936e-03 0.0000000000000000e+00  -9.5748488085240345e-09 3.3445825214919243e-03 0.0000000000000000e+00  3.2288251497761955e-09 3.3371427086263763e-03 0.0000000000000000e+00  2.3832946621102643e-09 3.3066914115562067e-03 0.0000000000000000e+00  -1.1156161017624958e-08 3.2988690737640785e-03 0.0000000000000000e+00  1.5438233616588496e-08 3.2908400740668340e-03 0.0000000000000000e+00  1.5886644305358489e-08 3.2987920507725837e-03 0.0000000000000000e+00  -9.8426882222713027e-09 3.3144632129029406e-03 0.0000000000000000e+00  1.6184814950514078e-08 3.3066411722437561e-03 0.0000000000000000e+00  3.3538523711935815e-09 3.2907357429353859e-03 0.0000000000000000e+00  -1.0379296368395843e-08 3.2827055731521728e-03 0.0000000000000000e+00  -9.8774399231133712e-09 3.2744648072027460e-03 0.0000000000000000e+00  3.3248128817140843e-09 3.3220825637271857e-03 0.0000000000000000e+00  1.5012280059659779e-08 3.2827847174596555e-03 0.0000000000000000e+00  1.3828987870968459e-09 3.2908918636849653e-03 0.0000000000000000e+00  1.4609372478370440e-08 3.2746251201246717e-03 0.0000000000000000e+00  2.3869566907513684e-09 3.2745185679403125e-03 0.0000000000000000e+00  -1.1524668835067951e-08 3.2662798825326802e-03 0.0000000000000000e+00  -1.1007865302912910e-08 3.2578268905219441e-03 0.0000000000000000e+00  1.5295398759276264e-08 3.2493498180066996e-03 0.0000000000000000e+00  1.0357698435581965e-09 3.2578822132582827e-03 0.0000000000000000e+00  1.4118451732482358e-08 3.2407651466115502e-03 0.0000000000000000e+00  1.6206618024694053e-08 3.2661992033127005e-03 0.0000000000000000e+00  1.6647459784610508e-08 3.3143883120284436e-03 0.0000000000000000e+00  -8.9076976604843387e-09 3.3296519208163128e-03 0.0000000000000000e+00  4.1267709583286865e-09 3.3220084178753107e-03 0.0000000000000000e+00  4.2043350770338548e-09 3.3065392175210878e-03 0.0000000000000000e+00  -9.3447397335188573e-09 3.2987149067711563e-03 0.0000000000000000e+00  -8.8290874179960924e-09 3.2906836504845356e-03 0.0000000000000000e+00  1.6883412771924708e-08 3.2826269213534496e-03 0.0000000000000000e+00  1.7623090311338389e-08 3.2986382716997209e-03 0.0000000000000000e+00  -8.1425643494955702e-09 3.3143130798583493e-03 0.0000000000000000e+00  5.3560896361288410e-09 3.3064632791649918e-03 0.0000000000000000e+00  -4.8185558240825031e-09 3.6436478301824929e-03 0.0000000000000000e+00  1.4439812154045488e-09 3.6413819930225591e-03 0.0000000000000000e+00  -5.3420443474611354e-09 3.6458450864524455e-03 0.0000000000000000e+00  8.9427510933126975e-09 3.6390881828989308e-03 0.0000000000000000e+00  8.5965703730513518e-09 3.6367241472770196e-03 0.0000000000000000e+00  2.4219394055897737e-09 3.6413819011394868e-03 0.0000000000000000e+00  2.4534286213238206e-09 3.6367097702194829e-03 0.0000000000000000e+00  -5.2360927041580627e-09 3.6343031055263704e-03 0.0000000000000000e+00  2.4684109564857727e-09 3.6318097327409805e-03 0.0000000000000000e+00  1.5488641785911691e-09 3.6318097952071399e-03 0.0000000000000000e+00  9.3398868829424356e-09 3.6292874462496402e-03 0.0000000000000000e+00  8.9873501404428822e-09 3.6266914779978948e-03 0.0000000000000000e+00  -4.0241326571580375e-09 3.6390878877175744e-03 0.0000000000000000e+00  1.0063118620120644e-08 3.6343030777417893e-03 0.0000000000000000e+00  3.3585550026188853e-09 3.6367097221223516e-03 0.0000000000000000e+00  -5.5160537042179595e-09 3.6240357822019489e-03 0.0000000000000000e+00  2.4822505680169371e-09 3.6266764180154995e-03 0.0000000000000000e+00  1.0070743121891165e-08 3.6213197253291930e-03 0.0000000000000000e+00  -4.2997655936568252e-09 3.6292872385822136e-03 0.0000000000000000e+00  1.0414054980394568e-08 3.6240357447669541e-03 0.0000000000000000e+00  1.0781621798069531e-08 3.6266914148110219e-03 0.0000000000000000e+00  3.3785170881149477e-09 3.6213043551007718e-03 0.0000000000000000e+00  -4.7903032783684404e-09 3.6185426546244538e-03 0.0000000000000000e+00  -4.4472170460475819e-09 3.6157039095023528e-03 0.0000000000000000e+00  3.3788191771985082e-09 3.6318097184122643e-03 0.0000000000000000e+00  1.6210096405172609e-09 3.6213044319850242e-03 0.0000000000000000e+00  9.7322958529615927e-09 3.6185426855509730e-03 0.0000000000000000e+00  9.3858030580711434e-09 3.6157039492680089e-03 0.0000000000000000e+00  -5.8087381278639679e-09 3.6128027305235132e-03 0.0000000000000000e+00  2.5083991015583887e-09 3.6156881891826367e-03 0.0000000000000000e+00  -5.4793322046442178e-09 3.6098385063856671e-03 0.0000000000000000e+00  1.7382687608626773e-09 3.6098224988140165e-03 0.0000000000000000e+00  1.0150626131047792e-08 3.6068103680698613e-03 0.0000000000000000e+00  9.9803100051718809e-09 3.6037179776326565e-03 0.0000000000000000e+00  1.0809722037589823e-08 3.6128025969470504e-03 0.0000000000000000e+00  -3.2766674981212098e-09 3.6343027983095971e-03 0.0000000000000000e+00  1.1139147485403459e-08 3.6292874058219179e-03 0.0000000000000000e+00  4.2686676483292647e-09 3.6318096891840151e-03 0.0000000000000000e+00  4.2793029707256550e-09 3.6266763937701468e-03 0.0000000000000000e+00  -3.7326833491864168e-09 3.6240357376991386e-03 0.0000000000000000e+00  -3.3870100866281885e-09 3.6213197524628789e-03 0.0000000000000000e+00  1.1526295511090302e-08 3.6185425432907659e-03 0.0000000000000000e+00  -2.5460454786043908e-09 3.6292871394182922e-03 0.0000000000000000e+00  1.2261173423562751e-08 3.6240356409082482e-03 0.0000000000000000e+00  5.1824575670429042e-09 3.6266763320743278e-03 0.0000000000000000e+00  5.3531937585594282e-09 3.2905446652697046e-03 0.0000000000000000e+00  -8.5390828623038603e-09 3.2825117109716653e-03 0.0000000000000000e+00  1.8677423661818858e-08 3.2742334473655787e-03 0.0000000000000000e+00  1.7897607353023635e-08 3.2659641145948615e-03 0.0000000000000000e+00  4.0021399648013093e-09 3.2743223762211841e-03 0.0000000000000000e+00  1.7609389415105652e-08 3.2575893611302858e-03 0.0000000000000000e+00  -9.5952438853119797e-09 3.2660809516038922e-03 0.0000000000000000e+00  5.1603582850180316e-09 3.2574431387281024e-03 0.0000000000000000e+00  -8.9599032284270190e-09 3.2489873192793344e-03 0.0000000000000000e+00  -8.8101493970454321e-09 3.2402759698907462e-03 0.0000000000000000e+00  1.7282839797614545e-08 3.2491085123195931e-03 0.0000000000000000e+00  3.1700563467171611e-09 3.2576810897463793e-03 0.0000000000000000e+00  3.3033720366382821e-09 3.2404931612812810e-03 0.0000000000000000e+00  4.1597486075602503e-09 3.2403711451539567e-03 0.0000000000000000e+00  -9.5940677808289592e-09 3.2317013095850438e-03 0.0000000000000000e+00  1.8082648332401746e-08 3.2315782595246853e-03 0.0000000000000000e+00  -1.0539333911171542e-08 3.2492284453473552e-03 0.0000000000000000e+00  2.3061022814578090e-09 3.2406153664882634e-03 0.0000000000000000e+00  1.6452446418656798e-08 3.2318256814673676e-03 0.0000000000000000e+00  1.8981578714557173e-09 3.2319217877047235e-03 0.0000000000000000e+00  4.0591041411542863e-09 3.6919756803420367e-03 0.0000000000000000e+00  8.3226713723874098e-09 3.6927014561666579e-03 0.0000000000000000e+00  3.9615440305457158e-09 3.6912109735314823e-03 0.0000000000000000e+00  1.1874404984180218e-08 3.6934108585924322e-03 0.0000000000000000e+00  1.2316411349308051e-08 3.6940822642710742e-03 0.0000000000000000e+00  7.7373772030283789e-09 3.6927011412048725e-03 0.0000000000000000e+00  7.8396282503188823e-09 3.6940747311978105e-03 0.0000000000000000e+00  5.0990661737802542e-09 3.6947238886875676e-03 0.0000000000000000e+00  8.0439643420783363e-09 3.6953290866104226e-03 0.0000000000000000e+00  8.6895704736542619e-09 3.6953292539573376e-03 0.0000000000000000e+00  1.1863617074179933e-08 3.6959199241435219e-03 0.0000000000000000e+00  1.2300703687891737e-08 3.6964760624075572e-03 0.0000000000000000e+00  3.5770599602706207e-09 3.6934105915020963e-03 0.0000000000000000e+00  1.0952625385067172e-08 3.6947236097003952e-03 0.0000000000000000e+00  6.8996078976142611e-09 3.6940745193447355e-03 0.0000000000000000e+00  5.7289568594908154e-09 3.6970051664120553e-03 0.0000000000000000e+00  7.9312370699652485e-09 3.6964691853882815e-03 0.0000000000000000e+00  1.1286405815568654e-08 3.6975073565874319e-03 0.0000000000000000e+00  4.1094351427061120e-09 3.6959199813150962e-03 0.0000000000000000e+00  1.0752780570159069e-08 3.6970047956150771e-03 0.0000000000000000e+00  1.0356573342615117e-08 3.6964759294990479e-03 0.0000000000000000e+00  6.9738325949813229e-09 3.6975009556249462e-03 0.0000000000000000e+00  4.9389065049088194e-09 3.6979841128695094e-03 0.0000000000000000e+00  7.3702586287555424e-09 3.6984294744532645e-03 0.0000000000000000e+00  7.0077473291006948e-09 3.6953288847737368e-03 0.0000000000000000e+00  9.0027622048332262e-09 3.6975013105501439e-03 0.0000000000000000e+00  1.1839662888109364e-08 3.6979840654244177e-03 0.0000000000000000e+00  1.2331216216424167e-08 3.6984358536976689e-03 0.0000000000000000e+00  6.2108127584697315e-09 3.6988631202483817e-03 0.0000000000000000e+00  7.9926072301074781e-09 3.6984295050765323e-03 0.0000000000000000e+00  8.6408261655873446e-09 3.6992605516639734e-03 0.0000000000000000e+00  9.6847715617968358e-09 3.6992609285573510e-03 0.0000000000000000e+00  1.1994768098249844e-08 3.6996458145436622e-03 0.0000000000000000e+00  1.3494439275621625e-08 3.7000037862078053e-03 0.0000000000000000e+00  1.0839426699881261e-08 3.6988620221644064e-03 0.0000000000000000e+00  2.8638434418482564e-09 3.6947234654420682e-03 0.0000000000000000e+00  9.7775675289206060e-09 3.6959197506004080e-03 0.0000000000000000e+00  5.9063625981360493e-09 3.6953286193601629e-03 0.0000000000000000e+00  6.0040496832407414e-0