<?xml version="1.0"?>
<VTKFile type="UnstructuredGrid"  version="0.1"  >
<UnstructuredGrid>
<Piece  NumberOfPoints="1473" NumberOfCells="2752">
<Points>
<DataArray  type="Float64"  NumberOfComponents="3"  format="ascii">9.935168359663109 1.365161978028206 0  9.997364848228942 1.240028151646202 0  9.872093487178645 1.236971854958944 0  9.934289975744482 1.11183802857694 0  9.936046743581734 1.618485927479472 0  9.999121616066198 1.746676050548734 0  9.873850255015896 1.743619753861476 0  9.936925127500359 1.871809876930738 0  9.999121616077563 0.246676050548734 0  9.936925127513621 0.1218098769307382 0  9.873850255027264 0.2436197538614763 0  10.06219648856392 0.1248661736179958 0  9.999999999999979 0 0  10.0613181046415 0.3715422241667299 0  9.936046743591206 0.3684859274794722 0  9.998243232155149 0.493352101097468 0  10.12499999999998 0 0  4.062499999999221 0.1267396444187268 0  4.124999999999964 0 0  3.999999999999964 0 0  4.187499999999222 0.1267396444187268 0  4.249999999999965 0 0  4.124999999998478 0.2534792888374535 0  4.249999999998479 0.2534792888374535 0  4.312499999999222 0.1267396444187268 0  4.374999999998479 0.2534792888374535 0  4.374999999999966 0 0  4.437499999999223 0.1267396444187268 0  4.499999999999966 0 0  4.187499999997735 0.3802189332561803 0  4.312499999997735 0.3802189332561803 0  4.249999999996992 0.506958577674907 0  4.562499999999223 0.1267396444187268 0  4.499999999998479 0.2534792888374535 0  4.624999999998479 0.2534792888374535 0  4.437499999997736 0.3802189332561803 0  4.562499999997736 0.3802189332561803 0  4.499999999996993 0.506958577674907 0  4.624999999996994 0.506958577674907 0  4.687499999997737 0.3802189332561803 0  4.749999999996994 0.506958577674907 0  4.374999999996993 0.506958577674907 0  4.624999999999966 0 0  4.687499999999224 0.1267396444187268 0  4.749999999999967 0 0  4.812499999999224 0.1267396444187268 0  4.74999999999848 0.2534792888374535 0  4.874999999998481 0.2534792888374535 0  4.874999999999968 0 0  4.937499999999225 0.1267396444187268 0  4.999999999999968 0 0  4.812499999997738 0.3802189332561803 0  4.312499999996248 0.6336982220936338 0  4.437499999996249 0.6336982220936338 0  4.374999999995506 0.7604378665123606 0  4.499999999995506 0.7604378665123606 0  4.562499999996249 0.6336982220936338 0  4.624999999995506 0.7604378665123606 0  4.68749999999625 0.6336982220936338 0  4.437499999994762 0.8871775109310873 0  4.562499999994762 0.8871775109310873 0  4.499999999994019 1.013917155349814 0  6.062499999998686 0.1267396444188046 0  6.12499999999997 0 0  5.99999999999997 0 0  6.187499999998687 0.1267396444188046 0  6.249999999999971 0 0  6.124999999997403 0.2534792888376092 0  6.249999999997404 0.2534792888376092 0  6.312499999998687 0.1267396444188046 0  6.374999999997405 0.2534792888376092 0  6.374999999999972 0 0  6.437499999998688 0.1267396444188046 0  6.499999999999972 0 0  6.18749999999612 0.3802189332564138 0  6.31249999999612 0.3802189332564138 0  6.249999999994837 0.5069585776752185 0  6.562499999998688 0.1267396444188046 0  6.499999999997405 0.2534792888376092 0  6.624999999997405 0.2534792888376092 0  6.437499999996121 0.3802189332564138 0  6.562499999996121 0.3802189332564138 0  6.499999999994838 0.5069585776752185 0  6.624999999994838 0.5069585776752185 0  6.687499999996122 0.3802189332564138 0  6.749999999994839 0.5069585776752185 0  6.374999999994838 0.5069585776752185 0  6.624999999999972 0 0  6.687499999998688 0.1267396444188046 0  6.749999999999972 0 0  6.812499999998689 0.1267396444188046 0  6.749999999997407 0.2534792888376092 0  6.874999999997407 0.2534792888376092 0  6.874999999999972 0 0  6.937499999998691 0.1267396444188046 0  6.999999999999973 0 0  6.812499999996123 0.3802189332564138 0  6.312499999993554 0.633698222094023 0  6.437499999993554 0.633698222094023 0  6.374999999992271 0.7604378665128277 0  6.499999999992271 0.7604378665128277 0  6.562499999993554 0.633698222094023 0  6.624999999992271 0.7604378665128277 0  6.687499999993555 0.633698222094023 0  6.437499999990988 0.8871775109316323 0  6.562499999990988 0.8871775109316323 0  6.499999999989704 1.013917155350437 0  2.062499999999721 0.1306909185268306 0  2.124999999999981 0 0  1.999999999999982 0 0  2.18749999999972 0.1306909185268306 0  2.24999999999998 0 0  2.12499999999946 0.2613818370536612 0  2.24999999999946 0.2613818370536612 0  2.312499999999719 0.1306909185268306 0  2.374999999999459 0.2613818370536612 0  2.37499999999998 0 0  2.437499999999719 0.1306909185268306 0  2.499999999999979 0 0  2.1874999999992 0.3920727555804918 0  2.312499999999199 0.3920727555804918 0  2.249999999998939 0.5227636741073225 0  2.562499999999718 0.1306909185268306 0  2.499999999999458 0.2613818370536612 0  2.624999999999457 0.2613818370536612 0  2.437499999999198 0.3920727555804918 0  2.562499999999197 0.3920727555804918 0  2.499999999998937 0.5227636741073225 0  2.624999999998936 0.5227636741073225 0  2.687499999999196 0.3920727555804918 0  2.749999999998935 0.5227636741073225 0  2.374999999998938 0.5227636741073225 0  2.624999999999978 0 0  2.687499999999717 0.1306909185268306 0  2.749999999999977 0 0  2.812499999999716 0.1306909185268306 0  2.749999999999456 0.2613818370536612 0  2.874999999999455 0.2613818370536612 0  2.874999999999976 0 0  2.937499999999715 0.1306909185268306 0  2.999999999999975 0 0  2.812499999999195 0.3920727555804918 0  2.312499999998678 0.6534545926341531 0  2.437499999998677 0.6534545926341531 0  2.374999999998417 0.7841455111609837 0  2.499999999998416 0.7841455111609837 0  2.562499999998676 0.6534545926341531 0  2.624999999998415 0.7841455111609837 0  2.687499999998675 0.6534545926341531 0  2.437499999998156 0.9148364296878144 0  2.562499999998155 0.9148364296878144 0  2.499999999997895 1.045527348214645 0  1.93749999999858 1.858253175473053 0  1.87499999999847 2 0  1.999999999998379 2 0  1.81249999999867 1.858253175473053 0  1.74999999999856 2 0  1.874999999998781 1.716506350946107 0  1.749999999998872 1.716506350946107 0  1.687499999998761 1.858253175473053 0  1.624999999998962 1.716506350946107 0  1.62499999999865 2 0  1.562499999998852 1.858253175473053 0  1.499999999998741 2 0  1.812499999998983 1.574759526419161 0  1.687499999999073 1.574759526419161 0  1.749999999999184 1.433012701892215 0  1.437499999998942 1.858253175473053 0  1.499999999999052 1.716506350946107 0  1.374999999999143 1.716506350946107 0  1.562499999999163 1.574759526419161 0  1.437499999999254 1.574759526419161 0  1.499999999999365 1.433012701892215 0  1.374999999999455 1.433012701892215 0  1.312499999999344 1.574759526419161 0  1.249999999999545 1.433012701892215 0  1.624999999999274 1.433012701892215 0  1.374999999998832 2 0  1.312499999999032 1.858253175473053 0  1.249999999998922 2 0  1.187499999999123 1.858253175473053 0  1.249999999999234 1.716506350946107 0  1.124999999999324 1.716506350946107 0  1.124999999999012 2 0  1.062499999999213 1.858253175473053 0  0.9999999999991025 2 0  1.187499999999435 1.574759526419161 0  1.687499999999385 1.291265877365269 0  1.562499999999476 1.291265877365269 0  1.624999999999586 1.149519052838322 0  1.499999999999677 1.149519052838322 0  1.437499999999566 1.291265877365269 0  1.374999999999767 1.149519052838322 0  1.312499999999656 1.291265877365269 0  1.562499999999787 1.007772228311376 0  1.437499999999877 1.007772228311376 0  1.499999999999988 0.8660254037844294 0  8.062345147225191 0.1309591313976655 0  8.124999999999975 0 0  7.999999999999975 0 0  8.187345147225191 0.1309591313976655 0  8.249999999999975 0 0  8.124690294450405 0.261918262795331 0  8.249690294450405 0.261918262795331 0  8.312345147225191 0.1309591313976655 0  8.374690294450405 0.261918262795331 0  8.374999999999975 0 0  8.437345147225191 0.1309591313976655 0  8.499999999999975 0 0  8.187035441675619 0.3928773941929965 0  8.312035441675619 0.3928773941929965 0  8.249380588900834 0.523836525590662 0  8.562345147225191 0.1309591313976655 0  8.499690294450405 0.261918262795331 0  8.624690294450405 0.261918262795331 0  8.437035441675619 0.3928773941929965 0  8.562035441675619 0.3928773941929965 0  8.499380588900834 0.523836525590662 0  8.624380588900834 0.523836525590662 0  8.687035441675619 0.3928773941929965 0  8.749380588900834 0.523836525590662 0  8.374380588900834 0.523836525590662 0  8.624999999999975 0 0  8.687345147225191 0.1309591313976655 0  8.749999999999975 0 0  8.812345147225191 0.1309591313976655 0  8.749690294450406 0.261918262795331 0  8.874690294450406 0.261918262795331 0  8.874999999999975 0 0  8.937345147225191 0.1309591313976655 0  8.999999999999977 0 0  8.81203544167562 0.3928773941929965 0  8.31172573612605 0.6547956569883275 0  8.43672573612605 0.6547956569883275 0  8.374070883351264 0.785754788385993 0  8.499070883351264 0.785754788385993 0  8.56172573612605 0.6547956569883275 0  8.624070883351264 0.785754788385993 0  8.68672573612605 0.6547956569883275 0  8.436416030576478 0.9167139197836585 0  8.561416030576478 0.9167139197836585 0  8.498761177801693 1.047673051181324 0  9.809896998612809 1.362105681340948 0  9.87297187109727 1.490295804410211 0  9.747700510046972 1.487239507722953 0  9.998243232147571 1.493352101097468 0  9.810775382531434 1.615429630792214 0  9.87121510326002 0.9836479055076783 0  9.996486464310319 0.986704202194936 0  9.809018614694182 1.108781731889682 0  9.74594374220972 0.9805916088204207 0  9.683747253643883 1.105725435202425 0  9.746822126128347 1.233915558271686 0  9.621550765078046 1.230859261584429 0  9.684625637562508 1.359049384653691 0  9.620672381159419 0.977535312133163 0  9.558475892593584 1.102669138515167 0  9.495401020109121 0.9744790154459053 0  9.811925127500167 1.871809876930738 0  9.874999999984631 2 0  9.749999999984439 2 0  9.748850255015705 1.743619753861476 0  9.686925127499977 1.871809876930738 0  9.623850255015515 1.743619753861476 0  9.561925127499787 1.871809876930738 0  9.624999999984249 2 0  9.499999999984059 2 0  9.685775382531244 1.615429630792214 0  9.498850255015325 1.743619753861476 0  9.43692
[...]
<PointData  Vectors="t"> 
<DataArray  type="Float64"  Name="t"  NumberOfComponents="3" format="ascii">-9.8180561752141256e-09 3.2317014189862134e-03 0.0000000000000000e+00  1.7731472236086472e-08 3.2403987536179886e-03 0.0000000000000000e+00  -9.5157170165365198e-09 3.2227714998626284e-03 0.0000000000000000e+00  1.8140748338991277e-08 3.2315785596075254e-03 0.0000000000000000e+00  1.6692434999291160e-08 3.2318258265722341e-03 0.0000000000000000e+00  -1.1088522208566559e-08 3.2406423425726952e-03 0.0000000000000000e+00  1.6134364043700482e-08 3.2230224627304237e-03 0.0000000000000000e+00  -1.1387286240669724e-08 3.2319493158232218e-03 0.0000000000000000e+00  7.5324805650199764e-09 3.2406152731481760e-03 0.0000000000000000e+00  2.1783920436134008e-08 3.2319486414949341e-03 0.0000000000000000e+00  7.5524027497332563e-09 3.2229943880327438e-03 0.0000000000000000e+00  7.8391249555172029e-09 3.2493221053468795e-03 0.0000000000000000e+00  -6.5700851184143086e-09 3.2407641937176970e-03 0.0000000000000000e+00  2.0884160216468350e-08 3.2492291581332389e-03 0.0000000000000000e+00  -6.8846398874004588e-09 3.2318251168671841e-03 0.0000000000000000e+00  -7.2518573218593910e-09 3.2405203449550873e-03 0.0000000000000000e+00  -5.6435333027118431e-09 3.2579096051348904e-03 0.0000000000000000e+00  -1.6439804127561697e-08 1.8295806414402834e-03 0.0000000000000000e+00  4.7106225544311482e-09 1.8515017542582403e-03 0.0000000000000000e+00  -1.8216955013601972e-08 1.8074460810473855e-03 0.0000000000000000e+00  2.6397864033918527e-08 1.8733345590817262e-03 0.0000000000000000e+00  2.7519687114357177e-08 1.8949530746962785e-03 0.0000000000000000e+00  5.4760806820361681e-09 1.8515001380623728e-03 0.0000000000000000e+00  5.6292759946829300e-09 1.8949100344677978e-03 0.0000000000000000e+00  -1.4924870262680118e-08 1.9164004088291578e-03 0.0000000000000000e+00  6.0892147468358255e-09 1.9376352597844143e-03 0.0000000000000000e+00  6.2724851015781545e-09 1.9376362413223230e-03 0.0000000000000000e+00  2.7025528693415755e-08 1.9587861809950828e-03 0.0000000000000000e+00  2.7813148006830245e-08 1.9797252187985486e-03 0.0000000000000000e+00  -1.6053205725170328e-08 1.8733328358031679e-03 0.0000000000000000e+00  2.6564038162552317e-08 1.9164002497513142e-03 0.0000000000000000e+00  5.3437378197788220e-09 1.8949091637617951e-03 0.0000000000000000e+00  -1.3865052756651219e-08 2.0004958192329637e-03 0.0000000000000000e+00  6.1598860915540321e-09 1.9796828313144287e-03 0.0000000000000000e+00  2.7037554179745868e-08 2.0210988666932816e-03 0.0000000000000000e+00  -1.4888537547812348e-08 1.9587855983636462e-03 0.0000000000000000e+00  2.6645095169830770e-08 2.0004954587455777e-03 0.0000000000000000e+00  2.6414856062947173e-08 1.9797243935491455e-03 0.0000000000000000e+00  5.9376109742912647e-09 2.0210568905521991e-03 0.0000000000000000e+00  -1.4136788320744821e-08 2.0415353496181284e-03 0.0000000000000000e+00  -1.4239954918035331e-08 2.0618056971332915e-03 0.0000000000000000e+00  5.7080111855450055e-09 1.9376350534607107e-03 0.0000000000000000e+00  7.1580559777122387e-09 2.0210579576777775e-03 0.0000000000000000e+00  2.7377077880974850e-08 2.0415358615928883e-03 0.0000000000000000e+00  2.7991700079837392e-08 2.0618063699203012e-03 0.0000000000000000e+00  -1.3012193206535904e-08 2.0819109639404225e-03 0.0000000000000000e+00  6.6546185784725897e-09 2.0617645845421263e-03 0.0000000000000000e+00  -1.3277308262903594e-08 2.1018509935264089e-03 0.0000000000000000e+00  7.9093703154108236e-09 2.1018104424542017e-03 0.0000000000000000e+00  2.7652181374483970e-08 2.1216267933994071e-03 0.0000000000000000e+00  2.8574565219150320e-08 2.1412395244160532e-03 0.0000000000000000e+00  2.6797694713873804e-08 2.0819103031908147e-03 0.0000000000000000e+00  -1.6082467040642469e-08 1.9163988714046988e-03 0.0000000000000000e+00  2.6327727041267261e-08 1.9587852898741943e-03 0.0000000000000000e+00  5.1922063260348735e-09 1.9376346598656529e-03 0.0000000000000000e+00  5.4646898496657165e-09 1.9796821415941374e-03 0.0000000000000000e+00  -1.4866309357961856e-08 2.0004951902667890e-03 0.0000000000000000e+00  -1.4929794030145366e-08 2.0210985307997855e-03 0.0000000000000000e+00  2.6276473135320139e-08 2.0415347428554232e-03 0.0000000000000000e+00  -1.6084073011200754e-08 1.9587841614421373e-03 0.0000000000000000e+00  2.6117023205484726e-08 2.0004947241458021e-03 0.0000000000000000e+00  5.4321741125737404e-09 1.9796816908595315e-03 0.0000000000000000e+00  -1.0916421514922411e-08 2.4503045077134164e-03 0.0000000000000000e+00  8.1930208698898194e-09 2.4670539521950466e-03 0.0000000000000000e+00  -1.0972265764637783e-08 2.4333667767482987e-03 0.0000000000000000e+00  2.6441199323199819e-08 2.4837274723940820e-03 0.0000000000000000e+00  2.6902665833913004e-08 2.5002138656680557e-03 0.0000000000000000e+00  7.5579538821380711e-09 2.4670535947591090e-03 0.0000000000000000e+00  7.6600635892989704e-09 2.5001763704854676e-03 0.0000000000000000e+00  -1.0012605469819530e-08 2.5165508125151253e-03 0.0000000000000000e+00  7.7945658120956621e-09 2.5327023247804104e-03 0.0000000000000000e+00  8.6239873179493967e-09 2.5327026375713420e-03 0.0000000000000000e+00  2.6426852752793784e-08 2.5487800232129950e-03 0.0000000000000000e+00  2.6861551132431323e-08 2.5646737711398767e-03 0.0000000000000000e+00  -1.1425464067453218e-08 2.4837271590040229e-03 0.0000000000000000e+00  2.5533334925922626e-08 2.5165505929889797e-03 0.0000000000000000e+00  6.7722660103419759e-09 2.5001761808875157e-03 0.0000000000000000e+00  -9.4058063904301518e-09 2.5804206201479971e-03 0.0000000000000000e+00  7.8517642568498379e-09 2.5646369084255170e-03 0.0000000000000000e+00  2.5858398485510941e-08 2.5960217561856037e-03 0.0000000000000000e+00  -1.0844345987701570e-08 2.5487800301948059e-03 0.0000000000000000e+00  2.5304104153539081e-08 2.5804203889618457e-03 0.0000000000000000e+00  2.4954078059300232e-08 2.5646734019035521e-03 0.0000000000000000e+00  6.8090571320871002e-09 2.5959854432837850e-03 0.0000000000000000e+00  -1.0257690360632834e-08 2.6114778001550894e-03 0.0000000000000000e+00  -1.0893469722957732e-08 2.6267897792640834e-03 0.0000000000000000e+00  6.8018105164381991e-09 2.5327021357457267e-03 0.0000000000000000e+00  9.0392764039601747e-09 2.5959858670645004e-03 0.0000000000000000e+00  2.6436302627544317e-08 2.6114779381488039e-03 0.0000000000000000e+00  2.6915653630386354e-08 2.6267899224659726e-03 0.0000000000000000e+00  -8.8651137378914880e-09 2.6419574202652895e-03 0.0000000000000000e+00  7.9710761464644458e-09 2.6267535979799229e-03 0.0000000000000000e+00  -9.5433220412020598e-09 2.6569824054481954e-03 0.0000000000000000e+00  9.8768329450262939e-09 2.6569469259010510e-03 0.0000000000000000e+00  2.6653071000862213e-08 2.6718634116473673e-03 0.0000000000000000e+00  2.8581152836202273e-08 2.6866041594940482e-03 0.0000000000000000e+00  2.5416687538063047e-08 2.6419563859505450e-03 0.0000000000000000e+00  -1.2109681125577414e-08 2.5165504037008950e-03 0.0000000000000000e+00  2.4405876603051407e-08 2.5487797318977878e-03 0.0000000000000000e+00  5.8525893620490207e-09 2.5327019951123068e-03 0.0000000000000000e+00  5.8500497755955055e-09 2.5646367335419532e-03 0.0000000000000000e+00  -1.1438335837687688e-08 2.5804203616695189e-03 0.0000000000000000e+00  -1.2093879155959217e-08 2.5960220750752255e-03 0.0000000000000000e+00  2.4585801303746325e-08 2.6114768492951448e-03 0.0000000000000000e+00  -1.2981280519926064e-08 2.5487796757252199e-03 0.0000000000000000e+00  2.3719642704980111e-08 2.5804194479507980e-03 0.0000000000000000e+00  4.6489516595870856e-09 2.5646363651951574e-03 0.0000000000000000e+00  -3.7877383910904554e-08 1.0317691385149583e-03 0.0000000000000000e+00  -1.2108120022386017e-08 1.0595663955180227e-03 0.0000000000000000e+00  -4.9174411800438389e-08 1.0037431911683096e-03 0.0000000000000000e+00  1.6662824767297162e-08 1.0872485216014314e-03 0.0000000000000000e+00  1.2464427441561265e-08 1.1146980299383358e-03 0.0000000000000000e+00  -1.2468307614066549e-08 1.0595609957979881e-03 0.0000000000000000e+00  -3.2145540986319949e-09 1.1146427892753949e-03 0.0000000000000000e+00  -2.9352140823425337e-08 1.1419521825797906e-03 0.0000000000000000e+00  -7.3485950385781140e-09 1.1689627253475916e-03 0.0000000000000000e+00  -2.7121331567722137e-09 1.1689643267040247e-03 0.0000000000000000e+00  2.1257709858107957e-08 1.1958768464328724e-03 0.0000000000000000e+00  1.6693654330971721e-08 1.2225612808548217e-03 0.0000000000000000e+00  -3.1920847531470372e-08 1.0872391565933516e-03 0.0000000000000000e+00  2.0411820309384190e-08 1.1419430485626329e-03 0.0000000000000000e+00  -6.8364247710292536e-09 1.1146427605335338e-03 0.0000000000000000e+00  -2.4286859521087740e-08 1.2490507403641609e-03 0.0000000000000000e+00  -1.0961190578172665e-09 1.2225070804133997e-03 0.0000000000000000e+00  2.0009342934614163e-08 1.2753471082192897e-03 0.0000000000000000e+00  -2.6342342397682937e-08 1.1958753273090196e-03 0.0000000000000000e+00  2.1370083702533764e-08 1.2490430179474394e-03 0.0000000000000000e+00  2.0788904110986271e-08 1.2225541034214824e-03 0.0000000000000000e+00  -4.6557995981737319e-10 1.2752960472169927e-03 0.0000000000000000e+00  -2.2499963592695272e-08 1.3014560916033201e-03 0.0000000000000000e+00  -2.2113902639851690e-08 1.3273778937609850e-03 0.0000000000000000e+00  -1.0915270072679800e-09 1.1689569737309996e-03 0.0000000000000000e+00  1.7835033265458704e-09 1.2753016109962119e-03 0.0000000000000000e+00  2.3938056404442576e-08 1.3014562843853340e-03 0.0000000000000000e+00  2.1518397807241323e-08 1.3273850754739755e-03 0.0000000000000000e+00  -2.0581645996846197e-08 1.3531198402826352e-03 0.0000000000000000e+00  6.7621659698892373e-10 1.3273325260537980e-03 0.0000000000000000e+00  -2.0789105206612921e-08 1.3786674380563784e-03 0.0000000000000000e+00  5.5479782159466715e-09 1.3786226097765835e-03 0.0000000000000000e+00  2.6485653750360930e-08 1.4040275444538203e-03 0.0000000000000000e+00  2.9979293201296424e-08 1.4292096554776714e-03 0.0000000000000000e+00  2.3673708716043104e-08 1.3531126774426385e-03 0.0000000000000000e+00  -2.7746434002468401e-08 1.1419370656222218e-03 0.0000000000000000e+00  2.1878889716803257e-08 1.1958752838693819e-03 0.0000000000000000e+00  5.0902602686208801e-10 1.1689527916404561e-03 0.0000000000000000e+00  9.7812048175059169e-10 1.2225058829384388e-03 0.0000000000000000e+00  -2.2645096504348344e-08 1.2490410694941101e-03 0.0000000000000000e+00  -2.1033078351174088e-08 1.2753408031990440e-03 0.0000000000000000e+00  2.3700319160084343e-08 1.3014520491643046e-03 0.0000000000000000e+00  -2.1928409143911739e-08 1.1958663501405371e-03 0.0000000000000000e+00  2.6871110731444970e-08 1.2490398032355932e-03 0.0000000000000000e+00  7.3246021679171870e-09 1.2225009042249318e-03 0.0000000000000000e+00  -1.1134514404163997e-08 9.7552015941054717e-04 0.0000000000000000e+00  6.7802659399247835e-09 9.4706907344275094e-04 0.0000000000000000e+00  -1.3815840265544423e-08 1.0037516981710674e-03 0.0000000000000000e+00  4.4592616185633091e-08 9.1849435506259961e-04 0.0000000000000000e+00  4.6973172388564772e-08 8.8968415117629692e-04 0.0000000000000000e+00  2.4431192540295596e-08 9.4706383791042458e-04 0.0000000000000000e+00  1.9567268280360182e-08 8.8962780986857773e-04 0.0000000000000000e+00  1.0114466034217418e-08 8.6068301710387680e-04 0.0000000000000000e+00  3.4146798375001904e-08 8.3141855179334236e-04 0.0000000000000000e+00  1.9335175399236423e-08 8.3142084164774198e-04 0.0000000000000000e+00  5.6456629899541127e-08 8.0205349344655960e-04 0.0000000000000000e+00  5.9069324982671280e-08 7.7244022089128551e-04 0.0000000000000000e+00  -6.2620415435418263e-09 9.1848107017362718e-04 0.0000000000000000e+00  4.7719259357829319e-08 8.6066574524151372e-04 0.0000000000000000e+00  2.2111576982751223e-08 8.8962881852131187e-04 0.0000000000000000e+00  2.4413623890759043e-08 7.4264541388031132e-04 0.0000000000000000e+00  2.4375066862394399e-08 7.7238839166360220e-04 0.0000000000000000e+00  5.6161248972709656e-08 7.1261268808687171e-04 0.0000000000000000e+00  -6.8068840037295709e-10 8.0204469519399050e-04 0.0000000000000000e+00  5.5304674933328399e-08 7.4262879025415579e-04 0.0000000000000000e+00  4.2036859211260452e-08 7.7243628906008949e-04 0.0000000000000000e+00  1.4924463709089185e-08 7.1256468971218304e-04 0.0000000000000000e+00  1.5132354999366747e-08 6.8241283788327315e-04 0.0000000000000000e+00  -5.3043752968366061e-09 6.5196851488272570e-04 0.0000000000000000e+00  1.8120557457027732e-08 8.3140356772015039e-04 0.0000000000000000e+00  2.5964743576924161e-08 7.1257353867969404e-04 0.0000000000000000e+00  6.9736692948702860e-08 6.8239830076204132e-04 0.0000000000000000e+00  6.8905950345576180e-08 6.5196995883379173e-04 0.0000000000000000e+00  4.2329746644676446e-08 6.2136152163495871e-04 0.0000000000000000e+00  2.3060535227399744e-08 6.5192236262389010e-04 0.0000000000000000e+00  -1.8903061883992989e-09 5.9052662787500174e-04 0.0000000000000000e+00  5.8272189245746742e-09 5.9044935108043669e-04 0.0000000000000000e+00  5.5685490755595690e-08 5.5946549534762531e-04 0.0000000000000000e+00  6.0192196120854393e-08 5.2812128636764303e-04 0.0000000000000000e+00  2.2163347113036632e-08 6.2134018359158471e-04 0.0000000000000000e+00  -1.2953830231184572e-08 8.6065486964892034e-04 0.0000000000000000e+00  4.0999905883627122e-08 8.0204919916833047e-04 0.0000000000000000e+00  7.6189119166518276e-09 8.3140619996512381e-04 0.0000000000000000e+00  8.7005104002370508e-09 7.7239337800017642e-04 0.0000000000000000e+00  -2.2879874038978666e-09 7.4264040990943282e-04 0.0000000000000000e+00  -1.8696375474182604e-08 7.1260159929451776e-04 0.0000000000000000e+00  -8.0955817766499346e-09 6.8238907326824004e-04 0.0000000000000000e+00  -2.9258936844561123e-08 8.0204157643367334e-04 0.0000000000000000e+00  -2.4780838638457294e-08 7.4263051017177146e-04 0.0000000000000000e+00  -5.2832884136361396e-09 7.7244353253712577e-04 0.0000000000000000e+00  -9.3891422115978278e-09 2.9161351959565321e-03 0.0000000000000000e+00  6.2421929039095534e-09 2.9284416064450204e-03 0.0000000000000000e+00  -1.1980374037420947e-08 2.9037313114145097e-03 0.0000000000000000e+00  2.2218099503135353e-08 2.9406195534250035e-03 0.0000000000000000e+00  2.2734793321232347e-08 2.9526983924035165e-03 0.0000000000000000e+00  6.5910670132327961e-09 2.9283795059618979e-03 0.0000000000000000e+00  7.2936888652293454e-09 2.9526064098974927e-03 0.0000000000000000e+00  -7.5857418033350943e-09 2.9645895930331418e-03 0.0000000000000000e+00  7.3566138558341515e-09 2.9763228387132408e-03 0.0000000000000000e+00  8.0496039747588521e-09 2.9763819719940757e-03 0.0000000000000000e+00  2.2923898644664251e-08 2.9880519246241436e-03 0.0000000000000000e+00  2.3407657310620872e-08 2.9996236004973739e-03 0.0000000000000000e+00  -9.0126973980459633e-09 2.9405576419005894e-03 0.0000000000000000e+00  2.2047573470183674e-08 2.9645302678648418e-03 0.0000000000000000e+00  6.3691991429164360e-09 2.9525463164265420e-03 0.0000000000000000e+00  -6.3211528866312971e-09 3.0110126906799125e-03 0.0000000000000000e+00  7.6785799965510297e-09 2.9995347484957765e-03 0.0000000000000000e+00  2.2663189273311793e-08 3.0222781690404702e-03 0.0000000000000000e+00  -7.8407319958913768e-09 2.9879940562839735e-03 0.0000000000000000e+00  2.1963010458455451e-08 3.0109557176089914e-03 0.0000000000000000e+00  2.1589313819975717e-08 2.9995087680546170e-03 0.0000000000000000e+00  6.7339166570876731e-09 3.0221914512588446e-03 0.0000000000000000e+00  -7.1747314270548595e-09 3.0334211433181309e-03 0.0000000000000000e+00  -7.8684044217384947e-09 3.0444425280336494e-03 0.0000000000000000e+00  6.7871413359130565e-09 2.9762644819722648e-03 0.0000000000000000e+00  9.1798863342827903e-09 3.0223039726313019e-03 0.0000000000000000e+00  2.3525699130193882e-08 3.0334766672707914e-03 0.0000000000000000e+00  2.4180424860200377e-08 3.0445522284676947e-03 0.0000000000000000e+00  -5.2710507221166442e-09 3.0554498024227060e-03 0.0000000000000000e+00  8.0666667957273773e-09 3.0444662321364945e-03 0.0000000000000000e+00  -6.2697238280202789e-09 3.0662273759278391e-03 0.0000000000000000e+00  1.0915333529797482e-08 3.0662510077691199e-03 0.0000000000000000e+00  2.4216190993153996e-08 3.0769352154592150e-03 0.0000000000000000e+00  2.7459220138998416e-08 3.0875250026955727e-03 0.0000000000000000e+00  2.2336695963043790e-08 3.0553937671206088e-03 0.0000000000000000e+00  -9.4734656044875750e-09 2.9644699002291017e-03 0.0000000000000000e+00  2.1095424696588273e-08 2.9879363838858238e-03 0.0000000000000000e+00  5.6397701025459088e-09 2.9762058581342251e-03 0.0000000000000000e+00  5.8320331109202808e-09 2.9994207182189275e-03 0.0000000000000000e+00  -8.4804233685789553e-09 3.0108993103381628e-03 0.0000000000000000e+00  -9.0542911950230475e-09 3.0221671350753863e-03 0.0000000000000000e+00  2.1261394811118040e-08 3.0333643227008077e-03 0.0000000000000000e+00  -1.0251538739747468e-08 2.9878775304500388e-03 0.0000000000000000e+00  2.0503383966067971e-08 3.0108415652704053e-03 0.0000000000000000e+00  4.7237613116446936e-09 2.9993628155565106e-03 0.0000000000000000e+00  1.7696001186248369e-08 3.2138570175229003e-03 0.0000000000000000e+00  3.3435034481883857e-09 3.2228692956706067e-03 0.0000000000000000e+00  1.7342535259144363e-08 3.2048322168755448e-03 0.0000000000000000e+00  -1.0140224960182211e-08 3.2405202343264890e-03 0.0000000000000000e+00  -1.0260230032284109e-08 3.2139835251893379e-03 0.0000000000000000e+00  4.9700527766199247e-09 3.2226191804961917e-03 0.0000000000000000e+00  1.8911216726204520e-08 3.2402768157862518e-03 0.0000000000000000e+00  -9.3856730022942851e-09 3.2137296186361491e-03 0.0000000000000000e+00  1.9017133735031743e-08 3.2045759299012102e-03 0.0000000000000000e+00  1.8401553163453703e-08 3.1954378622226264e-03 0.0000000000000000e+00  4.0455482985243290e-09 3.2046756421899429e-03 0.0000000000000000e+00  1.8298176982751524e-08 3.1861889119705273e-03 0.0000000000000000e+00  -9.6141988318207512e-09 3.1955674205922917e-03 0.0000000000000000e+00  4.6621008171752322e-09 3.1860291251349484e-03 0.0000000000000000e+00  -9.2982963512680242e-09 3.1766953648016375e-03 0.0000000000000000e+00  -1.0031492809282042e-08 3.1670862292149174e-03 0.0000000000000000e+00  1.5813583429111184e-08 3.2141495843509998e-03 0.0000000000000000e+00  1.2752002417225376e-09 3.2231590208618532e-03 0.0000000000000000e+00  1.5511929532335456e-08 3.2051684048818819e-03 0.0000000000000000e+00  2.8088854230152798e-09 3.2049722465111014e-03 0.0000000000000000e+00  -1.1233622138452791e-08 3.1959077367696943e-03 0.0000000000000000e+00  2.9022878506058056e-09 3.1865048013234891e-03 0.0000000000000000e+00  1.6681476931600685e-08 3.1772180950358610e-03 0.0000000000000000e+00  2.0141773001210845e-09 3.1866772379554658e-03 0.0000000000000000e+00  1.6374332672231319e-08 3.1677922010595280e-03 0.0000000000000000e+00  1.7068370350163668e-08 3.1957374967616315e-03 0.0000000000000000e+00  3.0994240317862039e-09 3.1675869880408440e-03 0.0000000000000000e+00  -1.1049506925353380e-08 3.1580755627225675e-03 0.0000000000000000e+00  1.7549671024321171e-08 3.1482423258907114e-03 0.0000000000000000e+00  1.7551300434305803e-08 3.1578969394544369e-03 0.0000000000000000e+00  -1.0259939000784651e-08 3.1770436849491829e-03 0.0000000000000000e+00  1.7856644423087995e-08 3.1674393801471678e-03 0.0000000000000000e+00  3.6188823089880119e-09 3.1480329182002869e-03 0.0000000000000000e+00  -1.0639064106997226e-08 3.1382916677848123e-03 0.0000000000000000e+00  3.9778421023910005e-09 3.1281934116130388e-03 0.0000000000000000e+00  3.6508961390829529e-09 3.1863326008605055e-03 0.0000000000000000e+00  1.7636881964528887e-08 3.1384743754949863e-03 0.0000000000000000e+00  2.7148896810555699e-09 3.1483942601602225e-03 0.0000000000000000e+00  1.7459155086493185e-08 3.1285930942578730e-03 0.0000000000000000e+00  3.2871515540440184e-09 3.1283784423555248e-03 0.0000000000000000e+00  -1.0930695983216515e-08 3.1184093409003092e-03 0.0000000000000