<?xml version="1.0"?>
<VTKFile type="UnstructuredGrid"  version="0.1"  >
<UnstructuredGrid>
<Piece  NumberOfPoints="2929" NumberOfCells="5504">
<Points>
<DataArray  type="Float64"  NumberOfComponents="3"  format="ascii">3.999999999999964 0 0  4.249999999999965 0 0  4.124999999998478 0.2534792888374535 0  4.374999999998479 0.2534792888374535 0  4.499999999999966 0 0  4.249999999996992 0.506958577674907 0  4.624999999998479 0.2534792888374535 0  4.499999999996993 0.506958577674907 0  4.749999999996994 0.506958577674907 0  4.749999999999967 0 0  4.874999999998481 0.2534792888374535 0  4.999999999999968 0 0  4.374999999995506 0.7604378665123606 0  4.624999999995506 0.7604378665123606 0  4.499999999994019 1.013917155349814 0  5.99999999999997 0 0  6.249999999999971 0 0  6.124999999997403 0.2534792888376092 0  6.374999999997405 0.2534792888376092 0  6.499999999999972 0 0  6.249999999994837 0.5069585776752185 0  6.624999999997405 0.2534792888376092 0  6.499999999994838 0.5069585776752185 0  6.749999999994839 0.5069585776752185 0  6.749999999999972 0 0  6.874999999997407 0.2534792888376092 0  6.999999999999973 0 0  6.374999999992271 0.7604378665128277 0  6.624999999992271 0.7604378665128277 0  6.499999999989704 1.013917155350437 0  1.999999999999982 0 0  2.24999999999998 0 0  2.12499999999946 0.2613818370536612 0  2.374999999999459 0.2613818370536612 0  2.499999999999979 0 0  2.249999999998939 0.5227636741073225 0  2.624999999999457 0.2613818370536612 0  2.499999999998937 0.5227636741073225 0  2.749999999998935 0.5227636741073225 0  2.749999999999977 0 0  2.874999999999455 0.2613818370536612 0  2.999999999999975 0 0  2.374999999998417 0.7841455111609837 0  2.624999999998415 0.7841455111609837 0  2.499999999997895 1.045527348214645 0  1.999999999998379 2 0  1.74999999999856 2 0  1.874999999998781 1.716506350946107 0  1.624999999998962 1.716506350946107 0  1.499999999998741 2 0  1.749999999999184 1.433012701892215 0  1.374999999999143 1.716506350946107 0  1.499999999999365 1.433012701892215 0  1.249999999999545 1.433012701892215 0  1.249999999998922 2 0  1.124999999999324 1.716506350946107 0  0.9999999999991025 2 0  1.624999999999586 1.149519052838322 0  1.374999999999767 1.149519052838322 0  1.499999999999988 0.8660254037844294 0  7.999999999999975 0 0  8.249999999999975 0 0  8.124690294450405 0.261918262795331 0  8.374690294450405 0.261918262795331 0  8.499999999999975 0 0  8.249380588900834 0.523836525590662 0  8.624690294450405 0.261918262795331 0  8.499380588900834 0.523836525590662 0  8.749380588900834 0.523836525590662 0  8.749999999999975 0 0  8.874690294450406 0.261918262795331 0  8.999999999999977 0 0  8.374070883351264 0.785754788385993 0  8.624070883351264 0.785754788385993 0  8.498761177801693 1.047673051181324 0  18.99999999999849 2 0  18.74999999999811 2 0  18.87499999999887 1.71650635094611 0  18.62499999999849 1.71650635094611 0  18.49999999999773 2 0  18.74999999999925 1.433012701892219 0  18.37499999999811 1.71650635094611 0  18.49999999999887 1.433012701892219 0  18.24999999999849 1.433012701892219 0  18.24999999999736 2 0  18.12499999999773 1.71650635094611 0  17.99999999999698 2 0  18.62499999999962 1.149519052838329 0  18.37499999999925 1.149519052838329 0  18.5 0.8660254037844386 0  16.99999999999547 2 0  16.74999999999509 2 0  16.87499999999629 1.746520711162699 0  16.62499999999591 1.746520711162699 0  16.49999999999471 2 0  16.7499999999971 1.493041422325399 0  16.37499999999553 1.746520711162699 0  16.49999999999672 1.493041422325399 0  16.24999999999635 1.493041422325399 0  16.24999999999434 2 0  16.12499999999515 1.746520711162699 0  15.99999999999396 2 0  16.62499999999792 1.239562133488098 0  16.37499999999754 1.239562133488098 0  16.49999999999874 0.9860828446507974 0  12.99999999998939 2 0  12.74999999998901 2 0  12.87499999999136 1.74652071116254 0  12.62499999999098 1.74652071116254 0  12.49999999998862 2 0  12.74999999999334 1.49304142232508 0  12.3749999999906 1.74652071116254 0  12.49999999999295 1.49304142232508 0  12.24999999999257 1.49304142232508 0  12.24999999998824 2 0  12.12499999999022 1.74652071116254 0  11.99999999998786 2 0  12.62499999999531 1.239562133487619 0  12.37499999999493 1.239562133487619 0  12.49999999999728 0.9860828446501591 0  10.99999999998634 2 0  10.74999999998596 2 0  10.87439297711764 1.749732347235992 0  10.62439297711725 1.749732347235992 0  10.49999999998558 2 0  10.74878595424893 1.499464694471983 0  10.37439297711687 1.749732347235992 0  10.49878595424855 1.499464694471983 0  10.24878595424817 1.499464694471983 0  10.2499999999852 2 0  10.1243929771165 1.749732347235992 0  9.999999999984821 2 0  10.62317893138022 1.249197041707975 0  10.37317893137984 1.249197041707975 0  10.49757190851152 0.9989293889439668 0  14.99999999999243 2 0  14.74999999999205 2 0  14.87499999999383 1.74652071116262 0  14.62499999999345 1.74652071116262 0  14.49999999999167 2 0  14.74999999999522 1.493041422325239 0  14.37499999999307 1.74652071116262 0  14.49999999999484 1.493041422325239 0  14.24999999999446 1.493041422325239 0  14.24999999999129 2 0  14.12499999999268 1.74652071116262 0  13.99999999999091 2 0  14.62499999999661 1.239562133487858 0  14.37499999999624 1.239562133487858 0  14.49999999999801 0.9860828446504779 0  10.24702918641092 0.9928167955694513 0  10.12263620927924 1.24308444833346 0  9.996486464310319 0.986704202194936 0  9.998243232147571 1.493352101097468 0  9.872093487178645 1.236971854958944 0  9.747700510046972 1.487239507722953 0  9.873850255015896 1.743619753861476 0  9.74594374220972 0.9805916088204207 0  9.621550765078046 1.230859261584429 0  9.495401020109121 0.9744790154459053 0  9.749999999984439 2 0  9.623850255015515 1.743619753861476 0  9.499999999984059 2 0  9.373850255015135 1.743619753861476 0  9.497700510046592 1.487239507722953 0  9.24770051004621 1.487239507722953 0  9.249999999983679 2 0  9.123850255014755 1.743619753861476 0  8.999999999983299 2 0  9.371550765077664 1.230859261584429 0  3.999999999993654 2 0  3.749999999994383 2 0  3.874999999994342 1.744460791439874 0  3.624999999995071 1.744460791439874 0  3.499999999995112 2 0  3.74999999999503 1.488921582879748 0  3.3749999999958 1.744460791439874 0  3.499999999995759 1.488921582879748 0  3.249999999996488 1.488921582879748 0  3.249999999995841 2 0  3.124999999996529 1.744460791439874 0  2.99999999999657 2 0  3.624999999995718 1.233382374319621 0  3.374999999996447 1.233382374319621 0  3.499999999996406 0.9778431657594949 0  5.99999999998782 2 0  5.74999999998855 2 0  5.87499999998929 1.751159762945844 0  5.62499999999002 1.751159762945844 0  5.499999999989278 2 0  5.749999999990761 1.502319525891687 0  5.374999999990749 1.751159762945844 0  5.49999999999149 1.502319525891687 0  5.24999999999222 1.502319525891687 0  5.249999999990007 2 0  5.124999999991478 1.751159762945844 0  4.999999999990736 2 0  5.624999999992232 1.253479288837531 0  5.37499999999296 1.253479288837531 0  5.499999999993702 1.004639051783375 0  16.99999999999999 0 0  17.24999999999999 0 0  17.1249999999998 0.2593847116342085 0  17.37499999999981 0.2593847116342085 0  17.49999999999999 0 0  17.24999999999962 0.518769423268417 0  17.62499999999981 0.2593847116342085 0  17.49999999999962 0.518769423268417 0  17.74999999999962 0.518769423268417 0  17.75 0 0  17.87499999999981 0.2593847116342085 0  18 0 0  17.37499999999944 0.7781541349026255 0  17.62499999999944 0.7781541349026255 0  17.49999999999925 1.037538846536834 0  14.99999999999999 0 0  15.24999999999999 0 0  15.12499999999929 0.2488402370542198 0  15.37499999999929 0.2488402370542198 0  15.49999999999999 0 0  15.24999999999858 0.4976804741084396 0  15.62499999999929 0.2488402370542198 0  15.49999999999858 0.4976804741084396 0  15.74999999999858 0.4976804741084396 0  15.74999999999999 0 0  15.87499999999929 0.2488402370542198 0  15.99999999999999 0 0  15.37499999999788 0.7465207111626594 0  15.62499999999788 0.7465207111626594 0  15.49999999999718 0.9953609482168791 0  7.999999999982053 2 0  7.749999999982765 2 0  7.874963130275843 1.744524651647608 0  7.624963130276555 1.744524651647608 0  7.499999999983477 2 0  7.749926260569634 1.489049303295215 0  7.374963130277267 1.744524651647608 0  7.499926260570346 1.489049303295215 0  7.249926260571058 1.489049303295215 0  7.24999999998419 2 0  7.12496313027798 1.744524651647608 0  6.999999999984902 2 0  7.624889390863425 1.233573954942823 0  7.374889390864137 1.233573954942823 0  7.499852521157216 0.9780986065904302 0  12.99999999999999 0 0  13.24999999999999 0 0  13.12499999999898 0.2488402370541932 0  13.37499999999898 0.2488402370541932 0  13.49999999999999 0 0  13.24999999999796 0.4976804741083863 0  13.62499999999898 0.2488402370541932 0  13.49999999999796 0.4976804741083863 0  13.74999999999796 0.4976804741083863 0  13.74999999999999 0 0  13.87499999999898 0.2488402370541932 0  13.99999999999999 0 0  13.37499999999694 0.7465207111625796 0  13.62499999999694 0.7465207111625796 0  13.49999999999593 0.9953609482167727 0  10.99999999999998 0 0  11.24999999999998 0 0  11.12489882952011 0.2493755097330886 0  11.37489882952011 0.2493755097330886 0  11.49999999999998 0 0  11.24979765904023 0.4987510194661772 0  11.62489882952011 0.2493755097330886 0  11.49979765904023 0.4987510194661772 0  11.74979765904023 0.4987510194661772 0  11.74999999999998 0 0  11.87489882952011 0.2493755097330886 0  11.99999999999998 0 0  11.37469648856036 0.7481265291992658 0  11.62469648856036 0.7481265291992658 0  11.49959531808049 0.9975020389323543 0  6.749963130281582 1.004962518160435 0  6.874963130284149 0.751483229322826 0  6.99992626057346 0.9960078809704336 0  6.999963130286717 0.4980039404852168 0  7.124926260576027 0.7425285921328244 0  7.249926260578595 0.4890493032952151 0  7.124963130289284 0.2445246516476076 0  7.249889390865338 0.9870532437804319 0  7.374889390867905 0.7335739549428226 0  4.74999999999394 1.011597629458204 0  4.874999999995428 0.7581183406207508 0  4.999999999993861 1.009278103566595 0  4.99999999999
[...]
<PointData  Vectors="u"> 
<DataArray  type="Float64"  Name="u"  NumberOfComponents="3" format="ascii">0.0000000000000000e+00 0.0000000000000000e+00 -3.8811088869473427e-03  0.0000000000000000e+00 0.0000000000000000e+00 -4.3439843084100852e-03  0.0000000000000000e+00 0.0000000000000000e+00 -4.1104963130050290e-03  0.0000000000000000e+00 0.0000000000000000e+00 -4.5841973216868984e-03  0.0000000000000000e+00 0.0000000000000000e+00 -4.8283881188681292e-03  0.0000000000000000e+00 0.0000000000000000e+00 -4.3446558768945511e-03  0.0000000000000000e+00 0.0000000000000000e+00 -5.0784534151269347e-03  0.0000000000000000e+00 0.0000000000000000e+00 -4.8283894292381804e-03  0.0000000000000000e+00 0.0000000000000000e+00 -5.3336488419979868e-03  0.0000000000000000e+00 0.0000000000000000e+00 -5.3336475742556235e-03  0.0000000000000000e+00 0.0000000000000000e+00 -5.5938897442899356e-03  0.0000000000000000e+00 0.0000000000000000e+00 -5.8590953542601697e-03  0.0000000000000000e+00 0.0000000000000000e+00 -4.5841989629433703e-03  0.0000000000000000e+00 0.0000000000000000e+00 -5.0784550367026383e-03  0.0000000000000000e+00 0.0000000000000000e+00 -4.8290405279714996e-03  0.0000000000000000e+00 0.0000000000000000e+00 -8.1497981095350527e-03  0.0000000000000000e+00 0.0000000000000000e+00 -8.7665623401611131e-03  0.0000000000000000e+00 0.0000000000000000e+00 -8.4566140156967905e-03  0.0000000000000000e+00 0.0000000000000000e+00 -9.0816356272853394e-03  0.0000000000000000e+00 0.0000000000000000e+00 -9.3997341285693130e-03  0.0000000000000000e+00 0.0000000000000000e+00 -8.7670739519042900e-03  0.0000000000000000e+00 0.0000000000000000e+00 -9.7222898600496724e-03  0.0000000000000000e+00 0.0000000000000000e+00 -9.3997351983952579e-03  0.0000000000000000e+00 0.0000000000000000e+00 -1.0048727961642342e-02  0.0000000000000000e+00 0.0000000000000000e+00 -1.0048726861315364e-02  0.0000000000000000e+00 0.0000000000000000e+00 -1.0378974722253223e-02  0.0000000000000000e+00 0.0000000000000000e+00 -1.0712960100481886e-02  0.0000000000000000e+00 0.0000000000000000e+00 -9.0816370252509385e-03  0.0000000000000000e+00 0.0000000000000000e+00 -9.7222912970674584e-03  0.0000000000000000e+00 0.0000000000000000e+00 -9.4002289381676825e-03  0.0000000000000000e+00 0.0000000000000000e+00 -1.0383264156867567e-03  0.0000000000000000e+00 0.0000000000000000e+00 -1.3032162925182555e-03  0.0000000000000000e+00 0.0000000000000000e+00 -1.1681721691193985e-03  0.0000000000000000e+00 0.0000000000000000e+00 -1.4468030634505404e-03  0.0000000000000000e+00 0.0000000000000000e+00 -1.5954499225879647e-03  0.0000000000000000e+00 0.0000000000000000e+00 -1.3040699942718098e-03  0.0000000000000000e+00 0.0000000000000000e+00 -1.7515842656866771e-03  0.0000000000000000e+00 0.0000000000000000e+00 -1.5954518715767280e-03  0.0000000000000000e+00 0.0000000000000000e+00 -1.9142700961271761e-03  0.0000000000000000e+00 0.0000000000000000e+00 -1.9142683403662875e-03  0.0000000000000000e+00 0.0000000000000000e+00 -2.0834114592148028e-03  0.0000000000000000e+00 0.0000000000000000e+00 -2.2589173669970873e-03  0.0000000000000000e+00 0.0000000000000000e+00 -1.4468053036107455e-03  0.0000000000000000e+00 0.0000000000000000e+00 -1.7515864583957069e-03  0.0000000000000000e+00 0.0000000000000000e+00 -1.5962824180914650e-03  0.0000000000000000e+00 0.0000000000000000e+00 -1.0383455795857086e-03  0.0000000000000000e+00 0.0000000000000000e+00 -8.0158074516821650e-04  0.0000000000000000e+00 0.0000000000000000e+00 -9.1728825497280864e-04  0.0000000000000000e+00 0.0000000000000000e+00 -6.9491170618584373e-04  0.0000000000000000e+00 0.0000000000000000e+00 -5.9373444006581946e-04  0.0000000000000000e+00 0.0000000000000000e+00 -8.0248476466013405e-04  0.0000000000000000e+00 0.0000000000000000e+00 -5.0090142198748098e-04  0.0000000000000000e+00 0.0000000000000000e+00 -5.9373210637867727e-04  0.0000000000000000e+00 0.0000000000000000e+00 -4.1569754005555396e-04  0.0000000000000000e+00 0.0000000000000000e+00 -4.1559860248808854e-04  0.0000000000000000e+00 0.0000000000000000e+00 -3.3802630904553938e-04  0.0000000000000000e+00 0.0000000000000000e+00 -2.6818939034428018e-04  0.0000000000000000e+00 0.0000000000000000e+00 -6.9490914813530650e-04  0.0000000000000000e+00 0.0000000000000000e+00 -5.0099811322791283e-04  0.0000000000000000e+00 0.0000000000000000e+00 -5.9338494123040272e-04  0.0000000000000000e+00 0.0000000000000000e+00 -1.3511060856795324e-02  0.0000000000000000e+00 0.0000000000000000e+00 -1.4243173212903056e-02  0.0000000000000000e+00 0.0000000000000000e+00 -1.3875062461851250e-02  0.0000000000000000e+00 0.0000000000000000e+00 -1.4613195912941971e-02  0.0000000000000000e+00 0.0000000000000000e+00 -1.4987266000231677e-02  0.0000000000000000e+00 0.0000000000000000e+00 -1.4241717070879496e-02  0.0000000000000000e+00 0.0000000000000000e+00 -1.5362713134218695e-02  0.0000000000000000e+00 0.0000000000000000e+00 -1.4985409069453127e-02  0.0000000000000000e+00 0.0000000000000000e+00 -1.5740954257711024e-02  0.0000000000000000e+00 0.0000000000000000e+00 -1.5742839447183767e-02  0.0000000000000000e+00 0.0000000000000000e+00 -1.6123827077283086e-02  0.0000000000000000e+00 0.0000000000000000e+00 -1.6509401277151132e-02  0.0000000000000000e+00 0.0000000000000000e+00 -1.4611353537007312e-02  0.0000000000000000e+00 0.0000000000000000e+00 -1.5360842136809978e-02  0.0000000000000000e+00 0.0000000000000000e+00 -1.4983909188997977e-02  0.0000000000000000e+00 0.0000000000000000e+00 -5.1852444733169502e-02  0.0000000000000000e+00 0.0000000000000000e+00 -5.0926679152004523e-02  0.0000000000000000e+00 0.0000000000000000e+00 -5.1389549356305374e-02  0.0000000000000000e+00 0.0000000000000000e+00 -5.0463847911382746e-02  0.0000000000000000e+00 0.0000000000000000e+00 -5.0001050539642024e-02  0.0000000000000000e+00 0.0000000000000000e+00 -5.0926679908758016e-02  0.0000000000000000e+00 0.0000000000000000e+00 -4.9538303751456958e-02  0.0000000000000000e+00 0.0000000000000000e+00 -5.0001047212858050e-02  0.0000000000000000e+00 0.0000000000000000e+00 -4.9075614449770204e-02  0.0000000000000000e+00 0.0000000000000000e+00 -4.9075617806343078e-02  0.0000000000000000e+00 0.0000000000000000e+00 -4.8612994738551851e-02  0.0000000000000000e+00 0.0000000000000000e+00 -4.8150451509208658e-02  0.0000000000000000e+00 0.0000000000000000e+00 -5.0463844604967570e-02  0.0000000000000000e+00 0.0000000000000000e+00 -4.9538300825819032e-02  0.0000000000000000e+00 0.0000000000000000e+00 -5.0001043242220114e-02  0.0000000000000000e+00 0.0000000000000000e+00 -4.4454243153207534e-02  0.0000000000000000e+00 0.0000000000000000e+00 -4.3531845960198094e-02  0.0000000000000000e+00 0.0000000000000000e+00 -4.3992963454280436e-02  0.0000000000000000e+00 0.0000000000000000e+00 -4.3071012843340500e-02  0.0000000000000000e+00 0.0000000000000000e+00 -4.2610367286385786e-02  0.0000000000000000e+00 0.0000000000000000e+00 -4.3531872025355613e-02  0.0000000000000000e+00 0.0000000000000000e+00 -4.2150015720996990e-02  0.0000000000000000e+00 0.0000000000000000e+00 -4.2610364157366978e-02  0.0000000000000000e+00 0.0000000000000000e+00 -4.1689949478207831e-02  0.0000000000000000e+00 0.0000000000000000e+00 -4.1689952604693027e-02  0.0000000000000000e+00 0.0000000000000000e+00 -4.1230191361529250e-02  0.0000000000000000e+00 0.0000000000000000e+00 -4.0770759252231711e-02  0.0000000000000000e+00 0.0000000000000000e+00 -4.3071010045926457e-02  0.0000000000000000e+00 0.0000000000000000e+00 -4.2150012917910165e-02  0.0000000000000000e+00 0.0000000000000000e+00 -4.2610395466597978e-02  0.0000000000000000e+00 0.0000000000000000e+00 -2.9907786408824757e-02  0.0000000000000000e+00 0.0000000000000000e+00 -2.9023722493590583e-02  0.0000000000000000e+00 0.0000000000000000e+00 -2.9465339730783798e-02  0.0000000000000000e+00 0.0000000000000000e+00 -2.8583530407556693e-02  0.0000000000000000e+00 0.0000000000000000e+00 -2.8144224291833709e-02  0.0000000000000000e+00 0.0000000000000000e+00 -2.9023863262942640e-02  0.0000000000000000e+00 0.0000000000000000e+00 -2.7706284460553732e-02  0.0000000000000000e+00 0.0000000000000000e+00 -2.8144221273738040e-02  0.0000000000000000e+00 0.0000000000000000e+00 -2.7269606475129691e-02  0.0000000000000000e+00 0.0000000000000000e+00 -2.7269609524583502e-02  0.0000000000000000e+00 0.0000000000000000e+00 -2.6834234799594747e-02  0.0000000000000000e+00 0.0000000000000000e+00 -2.6400209043889653e-02  0.0000000000000000e+00 0.0000000000000000e+00 -2.8583527717128146e-02  0.0000000000000000e+00 0.0000000000000000e+00 -2.7706281737125353e-02  0.0000000000000000e+00 0.0000000000000000e+00 -2.8144372767905285e-02  0.0000000000000000e+00 0.0000000000000000e+00 -2.2981753537845859e-02  0.0000000000000000e+00 0.0000000000000000e+00 -2.2143765174878715e-02  0.0000000000000000e+00 0.0000000000000000e+00 -2.2560046131404395e-02  0.0000000000000000e+00 0.0000000000000000e+00 -2.1725755799430486e-02  0.0000000000000000e+00 0.0000000000000000e+00 -2.1313208628945927e-02  0.0000000000000000e+00 0.0000000000000000e+00 -2.2139945405378763e-02  0.0000000000000000e+00 0.0000000000000000e+00 -2.0898843345330397e-02  0.0000000000000000e+00 0.0000000000000000e+00 -2.1309191124683699e-02  0.0000000000000000e+00 0.0000000000000000e+00 -2.0486509790398909e-02  0.0000000000000000e+00 0.0000000000000000e+00 -2.0490486911196974e-02  0.0000000000000000e+00 0.0000000000000000e+00 -2.0080216407322691e-02  0.0000000000000000e+00 0.0000000000000000e+00 -1.9676016971541581e-02  0.0000000000000000e+00 0.0000000000000000e+00 -2.1721720304057484e-02  0.0000000000000000e+00 0.0000000000000000e+00 -2.0894846814216706e-02  0.0000000000000000e+00 0.0000000000000000e+00 -2.1305421737043070e-02  0.0000000000000000e+00 0.0000000000000000e+00 -3.7109727417230412e-02  0.0000000000000000e+00 0.0000000000000000e+00 -3.6199378809178652e-02  0.0000000000000000e+00 0.0000000000000000e+00 -3.6654337743392364e-02  0.0000000000000000e+00 0.0000000000000000e+00 -3.5745166116453127e-02  0.0000000000000000e+00 0.0000000000000000e+00 -3.5291425098676242e-02  0.0000000000000000e+00 0.0000000000000000e+00 -3.6199451358764553e-02  0.0000000000000000e+00 0.0000000000000000e+00 -3.4838416550338001e-02  0.0000000000000000e+00 0.0000000000000000e+00 -3.5291422013512166e-02  0.0000000000000000e+00 0.0000000000000000e+00 -3.4386094804793321e-02  0.0000000000000000e+00 0.0000000000000000e+00 -3.4386097879938737e-02  0.0000000000000000e+00 0.0000000000000000e+00 -3.3934493458493260e-02  0.0000000000000000e+00 0.0000000000000000e+00 -3.3483641294411046e-02  0.0000000000000000e+00 0.0000000000000000e+00 -3.5745163359761079e-02  0.0000000000000000e+00 0.0000000000000000e+00 -3.4838413801360629e-02  0.0000000000000000e+00 0.0000000000000000e+00 -3.5291502568248645e-02  0.0000000000000000e+00 0.0000000000000000e+00 -2.0480755041289263e-02  0.0000000000000000e+00 0.0000000000000000e+00 -2.0074488080440236e-02  0.0000000000000000e+00 0.0000000000000000e+00 -1.9664627937235103e-02  0.0000000000000000e+00 0.0000000000000000e+00 -1.9670322993295575e-02  0.0000000000000000e+00 0.0000000000000000e+00 -1.9262640776780627e-02  0.0000000000000000e+00 0.0000000000000000e+00 -1.8862855881359011e-02  0.0000000000000000e+00 0.0000000000000000e+00 -1.9268303153574064e-02  0.0000000000000000e+00 0.0000000000000000e+00 -1.8857225879892126e-02  0.0000000000000000e+00 0.0000000000000000e+00 -1.8459731966243807e-02  0.0000000000000000e+00 0.0000000000000000e+00 -1.8058992150745148e-02  0.0000000000000000e+00 0.0000000000000000e+00 -1.8870228782608366e-02  0.0000000000000000e+00 0.0000000000000000e+00 -1.8467357246601795e-02  0.0000000000000000e+00 0.0000000000000000e+00 -1.8073561211036614e-02  0.0000000000000000e+00 0.0000000000000000e+00 -1.7675166595352045e-02  0.0000000000000000e+00 0.0000000000000000e+00 -1.8066274308683176e-02  0.0000000000000000e+00 0.0000000000000000e+00 -1.7279584501085840e-02  0.0000000000000000e+00 0.0000000000000000e+00 -1.7286464556505961e-02  0.0000000000000000e+00 0.0000000000000000e+00 -1.6893397805019611e-02  0.0000000000000000e+00 0.0000000000000000e+00 -1.6509401481749411e-02  0.0000000000000000e+00 0.0000000000000000e+00 -1.7668234436995934e-02  0.0000000000000000e+00 0.0000000000000000e+00 -3.8811237864833821e-03  0.0000000000000000e+00 0.0000000000000000e+00 -3.4404710091439218e-03  0.0000000000000000e+00 0.0000000000000000e+00 -3.6586797682833330e-03  0.0000000000000000e+00 0.0000000000000000e+00 -3.2294277290777855e-03  0.0000000000000000e+00 0.0000000000000000e+00 -3.0227463611557596e-03  0.0000000000000000e+00 0.0000000000000000e+00 -3.4411870182384078e-03  0.0000000000000000e+00 0.0000000000000000e+00 -2.8227001803038851e-03  0.0000000000000000e+00 0.0000000000000000e+00 -3.0227433793809421e-03  0.0000000000000000e+00 0.0000000000000000e+00 -2.6294161212316444e-03  0.0000000000000000e+00 0.0000000000000000e+00 -2.6286551389994319e-03  0.0000000000000000e+00 0.0000000000000000e+00 -2.4414709682505057e-03  0.0000000000000000e+00 0.0000000000000000e+00 -2.2589189539705761e-03  0.0000000000000000e+00 0.0000000000000000e+00 -3.2294250484929485e-03  0.0000000000000000e+00 0.0000000000000000e+00 -2.8234500771489772e-03  0.0000000000000000e+00 0.0000000000000000e+00 -3.0234823896686789e-03  0.0000000000000000e+00 0.0000000000000000e+00 -8.1498112340641533e-03  0.0000000000000000e+00 0.0000000000000000e+00 -7.5500615397494112e-03  0.0000000000000000e+00 0.0000000000000000e+00 -7.8483111542315027e-03  0.0000000000000000e+00 0.0000000000000000e+00 -7.2573220470074848e-03  0.0000000000000000e+00 0.0000000000000000e+00 -6.9679441659416903e-03  0.0000000000000000e+00 0.0000000000000000e+00 -7.5506117695905558e-03  0.0000000000000000e+00 0.0000000000000000e+00 -6.6836887759008081e-03  0.0000000000000000e+00 0.0000000000000000e+00 -6.9679411385240777e-03  0.0000000000000000e+00 0.0000000000000000e+00 -6.4046679087184566e-03  0.0000000000000000e+00 0.0000000000000000e+00 -6.4040782841640791e-03  0.0000000000000000e+00 0.0000000000000000e+00 -6.1297887277445284e-03  0.0000000000000000e+00 0.0000000000000000e+00 -5.8590986656278776e-03  0.0000000000000000e+00 0.0000000000000000e+00 -7.2573193428241015e-03  0.0000000000000000e+00 0.0000000000000000e+00 -6.6842687329450043e-03  0.0000000000000000e+00 0.0000000000000000e+00 -6.9685115189079229e-03  0.0000000000000000e+00 0.0000000000000000e+00 -4.4454233448709017e-02  0.0000000000000000e+00 0.0000000000000000e+00 -4.5377412489158470e-02  0.0000000000000000e+00 0.0000000000000000e+00 -4.4915756247061525e-02  0.0000000000000000e+00 0.0000000000000000e+00 -4.5839274041659925e-02  0.0000000000000000e+00 0.0000000000000000e+00 -4.6301247600290259e-02  0.0000000000000000e+00 0.0000000000000000e+00 -4.5377433746460923e-02  0.0000000000000000e+00 0.0000000000000000e+00 -4.6763376063487752e-02  0.0000000000000000e+00 0.0000000000000000e+00 -4.6301248824696668e-02  0.0000000000000000e+00 0.0000000000000000e+00 -4.7225640444876364e-02  0.0000000000000000e+00 0.0000000000000000e+00 -4.7225625865997468e-02  0.0000000000000000e+00 0.0000000000000000e+00 -4.7687998451566203e-02  0.0000000000000000e+00 0.0000000000000000e+00 -4.8150444183188090e-02  0.0000000000000000e+00 0.0000000000000000e+00 -4.5839275596402509e-02  0.0000000000000000e+00 0.0000000000000000e+00 -4.6763392520729676e-02  0.0000000000000000e+00 0.0000000000000000e+00 -4.6301267183311949e-02  0.0000000000000000e+00 0.0000000000000000e+00 -3.7109717257565761e-02  0.0000000000000000e+00 0.0000000000000000e+00 -3.8022236517396946e-02  0.0000000000000000e+00 0.0000000000000000e+00 -3.7565783988325864e-02  0.0000000000000000e+00 0.0000000000000000e+00 -3.8479300512260804e-02  0.0000000000000000e+00 0.0000000000000000e+00 -3.8936713256721399e-02  0.0000000000000000e+00 0.0000000000000000e+00 -3.8022298045369017e-02  0.0000000000000000e+00 0.0000000000000000e+00 -3.9394623658140435e-02  0.0000000000000000e+00 0.0000000000000000e+00 -3.8936714404113178e-02  0.0000000000000000e+00 0.0000000000000000e+00 -3.9852997848376377e-02  0.0000000000000000e+00 0.0000000000000000e+00 -3.9852948432679523e-02  0.0000000000000000e+00 0.0000000000000000e+00 -4.0311711612813078e-02  0.0000000000000000e+00 0.0000000000000000e+00 -4.0770752156516751e-02  0.0000000000000000e+00 0.0000000000000000e+00 -3.8479301972099152e-02  0.0000000000000000e+00 0.0000000000000000e+00 -3.9394676291522060e-02  0.0000000000000000e+00 0.0000000000000000e+00 -3.8936770337711757e-02  0.0000000000000000e+00 0.0000000000000000e+00 -1.3511074962341729e-02  0.0000000000000000e+00 0.0000000000000000e+00 -1.2791463238319417e-02  0.0000000000000000e+00 0.0000000000000000e+00 -1.3149964352644513e-02  0.0000000000000000e+00 0.0000000000000000e+00 -1.2436823269650803e-02  0.0000000000000000e+00 0.0000000000000000e+00 -1.2084883174022010e-02  0.0000000000000000e+00 0.0000000000000000e+00 -1.2791658697122843e-02  0.0000000000000000e+00 0.0000000000000000e+00 -1.1736541816423047e-02  0.0000000000000000e+00 0.0000000000000000e+00 -1.2084673641004606e-02  0.0000000000000000e+00 0.0000000000000000e+00 -1.1392104858353347e-02  0.0000000000000000e+00 0.0000000000000000e+00 -1.1391867103803773e-02  0.0000000000000000e+00 0.0000000000000000e+00 -1.1050966542180560e-02  0.0000000000000000e+00 0.0000000000000000e+00 -1.0712963088541836e-02  0.0000000000000000e+00 0.0000000000000000e+00 -1.2436611798387153e-02  0.0000000000000000e+00 0.0000000000000000e+00 -1.1736769185692613e-02  0.0000000000000000e+00 0.0000000000000000e+00 -1.2084890753053589e-02  0.0000000000000000e+00 0.0000000000000000e+00 -2.9907775794062862e-02  0.0000000000000000e+00 0.0000000000000000e+00 -3.0796093682799612e-02  0.0000000000000000e+00 0.0000000000000000e+00 -3.0351550564924900e-02  0.0000000000000000e+00 0.0000000000000000e+00 -3.1241871443058854e-02  0.0000000000000000e+00 0.0000000000000000e+00 -3.1688364902073801e-02  0.0000000000000000e+00 0.0000000000000000e+00 -3.0796217202461604e-02  0.0000000000000000e+00 0.0000000000000000e+00 -3.2135894085783108e-02  0.0000000000000000e+00 0.0000000000000000e+00 -3.1688365990401625e-02  0.0000000000000000e+00 0.0000000000000000e+00 -3.2584410266535808e-02  0.0000000000000000e+00 0.0000000000000000e+00 -3.2584304281744900e-02  0.0000000000000000e+00 0.0000000000000000e+00 -3.3033663825208365e-02  0.0000000000000000e+00 0.0000000000000000e+00 -3.3483635127619663e-02  0.0000000000000000e+00 0.0000000000000000e+00 -3.1241872843219935e-02  0.0000000000000000e+00 0.0000000000000000e+00 -3.2136004644777109e-02  0.0000000000000000e+00 0.0000000000000000e+00 -3.1688481205721146e-02  0.0000000000000000e+00 0.0000000000000000e+00 -2.2981741737274342e-02  0.0000000000000000e+00 0.0000000000000000e+00 -2.3826761863517541e-02  0.0000000000000000e+00 0.0000000000000000e+00 -2.3403269873200676e-02  0.0000000000000000e+00 0.0000000000000000e+00 -2.4251642122370000e-02  0.0000000000000000e+00 0.0000000000000000e+00 -2.4678424776417351e-02  0.0000000000000000e+00 0.0000000000000000e+00 -2.3826282579760622e-02  0.0000000000000000e+00 0.0000000000000000e+00 -2.5106284559341552e-02  0.0000000000000000e+00 0.0000000000000000e+00 -2.4677733895736825e-02  0.0000000000000000e+00 0.0000000000000000e+00 -2.5535847394710289e-02  0.0000000000000000e+00 0.0000000000000000e+00 -2.5536360018444948e-02  0.0000000000000000e+00 0.0000000000000000e+00 -2.5967394232184145e-02  0.0000000000000000e+00 0.0000000000000000e+00 -2.6400203997701061e-02  0.0000000000000000e+00 0.0000000000000000e+00 -2.4250954416069902e-02  0.0000000000000000e+00 0.0000000000000000e+00 -2.5105780298221782e-02  0.0000000000000000e+00 0.0000000000000000e+00 -2.4677238083081806e-02  0.0000000000000000e+00 0.0000000000000000e+00 -1.0048632640697934e-02  0.0000000000000000e+00 0.0000000000000000e+00 -1.0378878071461078e-02  0.0000000000000000e+00 0.0000000000000000e+00 -1.0712764373160688e-02  0.0000000000000000e+00 0.0000000000000000e+00 -1.0712861877239323e-02  0.0000000000000000e+00 0.0000000000000000e+00 -1.1050414581608830e-02  0.0000000000000000