<?xml version="1.0"?>
<VTKFile type="UnstructuredGrid"  version="0.1"  >
<UnstructuredGrid>
<Piece  NumberOfPoints="1473" NumberOfCells="2752">
<Points>
<DataArray  type="Float64"  NumberOfComponents="3"  format="ascii">18.93749999999868 1.858253175473055 0  18.8749999999983 2 0  18.99999999999849 2 0  18.81249999999849 1.858253175473055 0  18.74999999999811 2 0  18.87499999999887 1.71650635094611 0  18.74999999999868 1.71650635094611 0  18.6874999999983 1.858253175473055 0  18.62499999999849 1.71650635094611 0  18.62499999999792 2 0  18.56249999999811 1.858253175473055 0  18.49999999999773 2 0  18.81249999999906 1.574759526419165 0  18.68749999999887 1.574759526419165 0  18.74999999999925 1.433012701892219 0  18.43749999999792 1.858253175473055 0  18.4999999999983 1.71650635094611 0  18.37499999999811 1.71650635094611 0  18.56249999999868 1.574759526419165 0  18.43749999999849 1.574759526419165 0  18.49999999999887 1.433012701892219 0  18.37499999999868 1.433012701892219 0  18.3124999999983 1.574759526419165 0  18.24999999999849 1.433012701892219 0  18.62499999999906 1.433012701892219 0  18.37499999999755 2 0  18.31249999999773 1.858253175473055 0  18.24999999999736 2 0  18.18749999999755 1.858253175473055 0  18.24999999999792 1.71650635094611 0  18.12499999999773 1.71650635094611 0  18.12499999999717 2 0  18.06249999999736 1.858253175473055 0  17.99999999999698 2 0  18.18749999999811 1.574759526419165 0  18.68749999999944 1.291265877365274 0  18.56249999999925 1.291265877365274 0  18.62499999999962 1.149519052838329 0  18.49999999999944 1.149519052838329 0  18.43749999999906 1.291265877365274 0  18.37499999999925 1.149519052838329 0  18.31249999999887 1.291265877365274 0  18.56249999999981 1.007772228311384 0  18.43749999999962 1.007772228311384 0  18.5 0.8660254037844386 0  16.93749999999588 1.873260355581349 0  16.87499999999528 2 0  16.99999999999547 2 0  16.81249999999569 1.873260355581349 0  16.74999999999509 2 0  16.87499999999629 1.746520711162699 0  16.7499999999961 1.746520711162699 0  16.6874999999955 1.873260355581349 0  16.62499999999591 1.746520711162699 0  16.6249999999949 2 0  16.56249999999531 1.873260355581349 0  16.49999999999471 2 0  16.8124999999967 1.619781066744049 0  16.6874999999965 1.619781066744049 0  16.7499999999971 1.493041422325399 0  16.43749999999512 1.873260355581349 0  16.49999999999572 1.746520711162699 0  16.37499999999553 1.746520711162699 0  16.56249999999632 1.619781066744049 0  16.43749999999613 1.619781066744049 0  16.49999999999672 1.493041422325399 0  16.37499999999654 1.493041422325399 0  16.31249999999594 1.619781066744049 0  16.24999999999635 1.493041422325399 0  16.62499999999691 1.493041422325399 0  16.37499999999453 2 0  16.31249999999493 1.873260355581349 0  16.24999999999434 2 0  16.18749999999475 1.873260355581349 0  16.24999999999534 1.746520711162699 0  16.12499999999515 1.746520711162699 0  16.12499999999415 2 0  16.06249999999456 1.873260355581349 0  15.99999999999396 2 0  16.18749999999575 1.619781066744049 0  16.68749999999751 1.366301777906748 0  16.56249999999732 1.366301777906748 0  16.62499999999792 1.239562133488098 0  16.49999999999773 1.239562133488098 0  16.43749999999713 1.366301777906748 0  16.37499999999754 1.239562133488098 0  16.31249999999694 1.366301777906748 0  16.56249999999833 1.112822489069448 0  16.43749999999814 1.112822489069448 0  16.49999999999874 0.9860828446507974 0  12.93749999999038 1.87326035558127 0  12.8749999999892 2 0  12.99999999998939 2 0  12.81249999999018 1.87326035558127 0  12.74999999998901 2 0  12.87499999999136 1.74652071116254 0  12.74999999999117 1.74652071116254 0  12.68749999999 1.87326035558127 0  12.62499999999098 1.74652071116254 0  12.62499999998882 2 0  12.5624999999898 1.87326035558127 0  12.49999999998862 2 0  12.81249999999235 1.61978106674381 0  12.68749999999216 1.61978106674381 0  12.74999999999334 1.49304142232508 0  12.43749999998961 1.87326035558127 0  12.49999999999079 1.74652071116254 0  12.3749999999906 1.74652071116254 0  12.56249999999196 1.61978106674381 0  12.43749999999178 1.61978106674381 0  12.49999999999295 1.49304142232508 0  12.37499999999276 1.49304142232508 0  12.31249999999158 1.61978106674381 0  12.24999999999257 1.49304142232508 0  12.62499999999315 1.49304142232508 0  12.37499999998843 2 0  12.31249999998942 1.87326035558127 0  12.24999999998824 2 0  12.18749999998923 1.87326035558127 0  12.24999999999041 1.74652071116254 0  12.12499999999022 1.74652071116254 0  12.12499999998805 2 0  12.06249999998904 1.87326035558127 0  11.99999999998786 2 0  12.1874999999914 1.61978106674381 0  12.68749999999433 1.36630177790635 0  12.56249999999413 1.36630177790635 0  12.62499999999531 1.239562133487619 0  12.49999999999512 1.239562133487619 0  12.43749999999394 1.36630177790635 0  12.37499999999493 1.239562133487619 0  12.31249999999375 1.36630177790635 0  12.56249999999629 1.112822489068889 0  12.43749999999611 1.112822489068889 0  12.49999999999728 0.9860828446501591 0  10.87499999998615 2 0  10.8121964885518 1.874866173617996 0  10.74999999998596 2 0  10.93719648855199 1.874866173617996 0  10.87439297711764 1.749732347235992 0  10.99999999998634 2 0  10.74939297711745 1.749732347235992 0  10.6871964885516 1.874866173617996 0  10.62439297711725 1.749732347235992 0  10.56219648855141 1.874866173617996 0  10.62499999998577 2 0  10.49999999998558 2 0  10.68658946568309 1.624598520853987 0  10.81158946568329 1.624598520853987 0  10.74878595424893 1.499464694471983 0  10.49939297711706 1.749732347235992 0  10.43719648855122 1.874866173617996 0  10.37439297711687 1.749732347235992 0  10.43658946568271 1.624598520853987 0  10.5615894656829 1.624598520853987 0  10.49878595424855 1.499464694471983 0  10.37378595424836 1.499464694471983 0  10.31158946568252 1.624598520853987 0  10.24878595424817 1.499464694471983 0  10.62378595424874 1.499464694471983 0  10.31219648855103 1.874866173617996 0  10.37499999998539 2 0  10.2499999999852 2 0  10.24939297711668 1.749732347235992 0  10.18719648855085 1.874866173617996 0  10.1243929771165 1.749732347235992 0  10.06219648855066 1.874866173617996 0  10.12499999998501 2 0  9.999999999984821 2 0  10.18658946568234 1.624598520853987 0  10.56098244281439 1.374330868089979 0  10.68598244281458 1.374330868089979 0  10.62317893138022 1.249197041707975 0  10.49817893138003 1.249197041707975 0  10.4359824428142 1.374330868089979 0  10.37317893137984 1.249197041707975 0  10.31098244281401 1.374330868089979 0  10.43537541994568 1.124063215325971 0  10.56037541994587 1.124063215325971 0  10.49757190851152 0.9989293889439668 0  14.93749999999313 1.87326035558131 0  14.87499999999224 2 0  14.99999999999243 2 0  14.81249999999294 1.87326035558131 0  14.74999999999205 2 0  14.87499999999383 1.74652071116262 0  14.74999999999364 1.74652071116262 0  14.68749999999275 1.87326035558131 0  14.62499999999345 1.74652071116262 0  14.62499999999186 2 0  14.56249999999256 1.87326035558131 0  14.49999999999167 2 0  14.81249999999453 1.61978106674393 0  14.68749999999434 1.61978106674393 0  14.74999999999522 1.493041422325239 0  14.43749999999237 1.87326035558131 0  14.49999999999326 1.74652071116262 0  14.37499999999307 1.74652071116262 0  14.56249999999415 1.61978106674393 0  14.43749999999396 1.61978106674393 0  14.49999999999484 1.493041422325239 0  14.37499999999465 1.493041422325239 0  14.31249999999376 1.61978106674393 0  14.24999999999446 1.493041422325239 0  14.62499999999503 1.493041422325239 0  14.37499999999148 2 0  14.31249999999218 1.87326035558131 0  14.24999999999129 2 0  14.18749999999199 1.87326035558131 0  14.24999999999288 1.74652071116262 0  14.12499999999268 1.74652071116262 0  14.1249999999911 2 0  14.0624999999918 1.87326035558131 0  13.99999999999091 2 0  14.18749999999357 1.61978106674393 0  14.68749999999591 1.366301777906548 0  14.56249999999573 1.366301777906548 0  14.62499999999661 1.239562133487858 0  14.49999999999643 1.239562133487858 0  14.43749999999554 1.366301777906548 0  14.37499999999624 1.239562133487858 0  14.31249999999535 1.366301777906548 0  14.56249999999731 1.112822489069168 0  14.43749999999713 1.112822489069168 0  14.49999999999801 0.9860828446504779 0  10.37230054746122 0.9958730922567091 0  10.31010405889538 1.121006918638713 0  10.24702918641092 0.9928167955694513 0  10.18483269784508 1.117950621951456 0  10.24790757032954 1.246140745020718 0  10.12263620927924 1.24308444833346 0  10.1857110817637 1.371274571402721 0  10.12175782536062 0.9897604988821938 0  10.05956133679478 1.114894325264198 0  9.996486464310319 0.986704202194936 0  10.0604397207134 1.368218274715464 0  10.12351459319787 1.496408397784725 0  9.998243232147571 1.493352101097468 0  9.997364848228942 1.240028151646202 0  9.935168359663109 1.365161978028206 0  9.934289975744482 1.11183802857694 0  10.06131810463204 1.62154222416673 0  9.999121616066198 1.746676050548734 0  9.936046743581734 1.618485927479472 0  9.936925127500359 1.871809876930738 0  17.06249999999989 0.1296923558171043 0  17.12499999999999 0 0  16.99999999999999 0 0  17.18749999999989 0.1296923558171043 0  17.24999999999999 0 0  17.1249999999998 0.2593847116342085 0  17.24999999999981 0.2593847116342085 0  17.3124999999999 0.1296923558171043 0  17.37499999999981 0.2593847116342085 0  17.37499999999999 0 0  17.4374999999999 0.1296923558171043 0  17.49999999999999 0 0  17.18749999999971 0.3890770674513128 0  17.31249999999972 0.3890770674513128 0  17.24999999999962 0.518769423268417 0  17.5624999999999 0.1296923558171043 0  17.49999999999981 0.2593847116342085 0  17.62499999999981 0.2593847116342085 0  17.43749999999972 0.3890770674513128 0  17.56249999999972 0.3890770674513128 0  17.49999999999962 0.518769423268417 0  17.62499999999962 0.518769423268417 0  17.68749999999972 0.3890770674513128 0  17.74999999999962 0.518769423268417 0  17.37499999999962 0.518769423268417 0  17.62499999999999 0 0  17.68749999999991 0.1296923558171043 0  17.75 0 0  17.81249999999991 0.1296923558171043 0  17.74999999999981 
[...]
<PointData  Vectors="u"> 
<DataArray  type="Float64"  Name="u"  NumberOfComponents="3" format="ascii">0.0000000000000000e+00 0.0000000000000000e+00 -5.1620243304504383e-02  0.0000000000000000e+00 0.0000000000000000e+00 -5.1388799596130644e-02  0.0000000000000000e+00 0.0000000000000000e+00 -5.1851692422925394e-02  0.0000000000000000e+00 0.0000000000000000e+00 -5.1157363263141208e-02  0.0000000000000000e+00 0.0000000000000000e+00 -5.0925934329773104e-02  0.0000000000000000e+00 0.0000000000000000e+00 -5.1388800120935677e-02  0.0000000000000000e+00 0.0000000000000000e+00 -5.0925934591520491e-02  0.0000000000000000e+00 0.0000000000000000e+00 -5.0694513974162324e-02  0.0000000000000000e+00 0.0000000000000000e+00 -5.0463103077704539e-02  0.0000000000000000e+00 0.0000000000000000e+00 -5.0463102666005892e-02  0.0000000000000000e+00 0.0000000000000000e+00 -5.0231701928116379e-02  0.0000000000000000e+00 0.0000000000000000e+00 -5.0000312187297828e-02  0.0000000000000000e+00 0.0000000000000000e+00 -5.1157363928904048e-02  0.0000000000000000e+00 0.0000000000000000e+00 -5.0694514465235575e-02  0.0000000000000000e+00 0.0000000000000000e+00 -5.0925935447439806e-02  0.0000000000000000e+00 0.0000000000000000e+00 -4.9768934879266986e-02  0.0000000000000000e+00 0.0000000000000000e+00 -5.0000312521069908e-02  0.0000000000000000e+00 0.0000000000000000e+00 -4.9537570926306909e-02  0.0000000000000000e+00 0.0000000000000000e+00 -5.0231702518174673e-02  0.0000000000000000e+00 0.0000000000000000e+00 -4.9768935393184825e-02  0.0000000000000000e+00 0.0000000000000000e+00 -5.0000313271753971e-02  0.0000000000000000e+00 0.0000000000000000e+00 -4.9537571604503651e-02  0.0000000000000000e+00 0.0000000000000000e+00 -4.9306221388741092e-02  0.0000000000000000e+00 0.0000000000000000e+00 -4.9074887382975232e-02  0.0000000000000000e+00 0.0000000000000000e+00 -5.0463103780998761e-02  0.0000000000000000e+00 0.0000000000000000e+00 -4.9537570441737434e-02  0.0000000000000000e+00 0.0000000000000000e+00 -4.9306220759718015e-02  0.0000000000000000e+00 0.0000000000000000e+00 -4.9074886170604771e-02  0.0000000000000000e+00 0.0000000000000000e+00 -4.8843568600484236e-02  0.0000000000000000e+00 0.0000000000000000e+00 -4.9074886626978592e-02  0.0000000000000000e+00 0.0000000000000000e+00 -4.8612268929039089e-02  0.0000000000000000e+00 0.0000000000000000e+00 -4.8612268315831896e-02  0.0000000000000000e+00 0.0000000000000000e+00 -4.8380987730841457e-02  0.0000000000000000e+00 0.0000000000000000e+00 -4.8149726932213886e-02  0.0000000000000000e+00 0.0000000000000000e+00 -4.8843569188415634e-02  0.0000000000000000e+00 0.0000000000000000e+00 -5.0694515491934398e-02  0.0000000000000000e+00 0.0000000000000000e+00 -5.0231703404566903e-02  0.0000000000000000e+00 0.0000000000000000e+00 -5.0463104996804606e-02  0.0000000000000000e+00 0.0000000000000000e+00 -5.0000314335599406e-02  0.0000000000000000e+00 0.0000000000000000e+00 -4.9768936311837646e-02  0.0000000000000000e+00 0.0000000000000000e+00 -4.9537572681546301e-02  0.0000000000000000e+00 0.0000000000000000e+00 -4.9306222233187390e-02  0.0000000000000000e+00 0.0000000000000000e+00 -5.0231704820259571e-02  0.0000000000000000e+00 0.0000000000000000e+00 -4.9768937562721348e-02  0.0000000000000000e+00 0.0000000000000000e+00 -5.0000315867710844e-02  0.0000000000000000e+00 0.0000000000000000e+00 -4.4222874695239625e-02  0.0000000000000000e+00 0.0000000000000000e+00 -4.3992250175546935e-02  0.0000000000000000e+00 0.0000000000000000e+00 -4.4453549792720183e-02  0.0000000000000000e+00 0.0000000000000000e+00 -4.3761678974601315e-02  0.0000000000000000e+00 0.0000000000000000e+00 -4.3531162555917914e-02  0.0000000000000000e+00 0.0000000000000000e+00 -4.3992250582206842e-02  0.0000000000000000e+00 0.0000000000000000e+00 -4.3531162981400306e-02  0.0000000000000000e+00 0.0000000000000000e+00 -4.3300703814647921e-02  0.0000000000000000e+00 0.0000000000000000e+00 -4.3070304677755210e-02  0.0000000000000000e+00 0.0000000000000000e+00 -4.3070304239381067e-02  0.0000000000000000e+00 0.0000000000000000e+00 -4.2839966849572787e-02  0.0000000000000000e+00 0.0000000000000000e+00 -4.2609693189955063e-02  0.0000000000000000e+00 0.0000000000000000e+00 -4.3761679525663379e-02  0.0000000000000000e+00 0.0000000000000000e+00 -4.3300704372304925e-02  0.0000000000000000e+00 0.0000000000000000e+00 -4.3531163666930078e-02  0.0000000000000000e+00 0.0000000000000000e+00 -4.2379486395201747e-02  0.0000000000000000e+00 0.0000000000000000e+00 -4.2609693641650813e-02  0.0000000000000000e+00 0.0000000000000000e+00 -4.2149348525727888e-02  0.0000000000000000e+00 0.0000000000000000e+00 -4.2839967416435025e-02  0.0000000000000000e+00 0.0000000000000000e+00 -4.2379486969193740e-02  0.0000000000000000e+00 0.0000000000000000e+00 -4.2609694333629058e-02  0.0000000000000000e+00 0.0000000000000000e+00 -4.2149349221779167e-02  0.0000000000000000e+00 0.0000000000000000e+00 -4.1919282022760830e-02  0.0000000000000000e+00 0.0000000000000000e+00 -4.1689289361608033e-02  0.0000000000000000e+00 0.0000000000000000e+00 -4.3070305362705036e-02  0.0000000000000000e+00 0.0000000000000000e+00 -4.2149348060985393e-02  0.0000000000000000e+00 0.0000000000000000e+00 -4.1919281437231240e-02  0.0000000000000000e+00 0.0000000000000000e+00 -4.1689288181873466e-02  0.0000000000000000e+00 0.0000000000000000e+00 -4.1459371648158674e-02  0.0000000000000000e+00 0.0000000000000000e+00 -4.1689288656461675e-02  0.0000000000000000e+00 0.0000000000000000e+00 -4.1229534042206369e-02  0.0000000000000000e+00 0.0000000000000000e+00 -4.1229533553539234e-02  0.0000000000000000e+00 0.0000000000000000e+00 -4.0999777369009623e-02  0.0000000000000000e+00 0.0000000000000000e+00 -4.0770104866956612e-02  0.0000000000000000e+00 0.0000000000000000e+00 -4.1459372239582355e-02  0.0000000000000000e+00 0.0000000000000000e+00 -4.3300705182008799e-02  0.0000000000000000e+00 0.0000000000000000e+00 -4.2839968227145094e-02  0.0000000000000000e+00 0.0000000000000000e+00 -4.3070306299089520e-02  0.0000000000000000e+00 0.0000000000000000e+00 -4.2609695265816989e-02  0.0000000000000000e+00 0.0000000000000000e+00 -4.2379487784839472e-02  0.0000000000000000e+00 0.0000000000000000e+00 -4.2149350162390964e-02  0.0000000000000000e+00 0.0000000000000000e+00 -4.1919282841169345e-02  0.0000000000000000e+00 0.0000000000000000e+00 -4.2839969288395376e-02  0.0000000000000000e+00 0.0000000000000000e+00 -4.2379488846195065e-02  0.0000000000000000e+00 0.0000000000000000e+00 -4.2609696461490806e-02  0.0000000000000000e+00 0.0000000000000000e+00 -2.9685855946890834e-02  0.0000000000000000e+00 0.0000000000000000e+00 -2.9464703901730917e-02  0.0000000000000000e+00 0.0000000000000000e+00 -2.9907278201782010e-02  0.0000000000000000e+00 0.0000000000000000e+00 -2.9243827700614917e-02  0.0000000000000000e+00 0.0000000000000000e+00 -2.9023231357223501e-02  0.0000000000000000e+00 0.0000000000000000e+00 -2.9464704382933037e-02  0.0000000000000000e+00 0.0000000000000000e+00 -2.9023231850178390e-02  0.0000000000000000e+00 0.0000000000000000e+00 -2.8802920626538404e-02  0.0000000000000000e+00 0.0000000000000000e+00 -2.8582900072019857e-02  0.0000000000000000e+00 0.0000000000000000e+00 -2.8582899571669252e-02  0.0000000000000000e+00 0.0000000000000000e+00 -2.8363174054723290e-02  0.0000000000000000e+00 0.0000000000000000e+00 -2.8143748209910596e-02  0.0000000000000000e+00 0.0000000000000000e+00 -2.9243828309861865e-02  0.0000000000000000e+00 0.0000000000000000e+00 -2.8802921239374626e-02  0.0000000000000000e+00 0.0000000000000000e+00 -2.9023232579437196e-02  0.0000000000000000e+00 0.0000000000000000e+00 -2.7924628004727701e-02  0.0000000000000000e+00 0.0000000000000000e+00 -2.8143748721592476e-02  0.0000000000000000e+00 0.0000000000000000e+00 -2.7705818148280218e-02  0.0000000000000000e+00 0.0000000000000000e+00 -2.8363174675507516e-02  0.0000000000000000e+00 0.0000000000000000e+00 -2.7924628629236212e-02  0.0000000000000000e+00 0.0000000000000000e+00 -2.8143749455259427e-02  0.0000000000000000e+00 0.0000000000000000e+00 -2.7705818886295676e-02  0.0000000000000000e+00 0.0000000000000000e+00 -2.7487323792606266e-02  0.0000000000000000e+00 0.0000000000000000e+00 -2.7269150123304976e-02  0.0000000000000000e+00 0.0000000000000000e+00 -2.8582900803333759e-02  0.0000000000000000e+00 0.0000000000000000e+00 -2.7705817628608135e-02  0.0000000000000000e+00 0.0000000000000000e+00 -2.7487323158876094e-02  0.0000000000000000e+00 0.0000000000000000e+00 -2.7269148853396135e-02  0.0000000000000000e+00 0.0000000000000000e+00 -2.7051300895175337e-02  0.0000000000000000e+00 0.0000000000000000e+00 -2.7269149385852620e-02  0.0000000000000000e+00 0.0000000000000000e+00 -2.6833784135151889e-02  0.0000000000000000e+00 0.0000000000000000e+00 -2.6833783591313203e-02  0.0000000000000000e+00 0.0000000000000000e+00 -2.6616603253196695e-02  0.0000000000000000e+00 0.0000000000000000e+00 -2.6399764230069674e-02  0.0000000000000000e+00 0.0000000000000000e+00 -2.7051301531663095e-02  0.0000000000000000e+00 0.0000000000000000e+00 -2.8802922083711144e-02  0.0000000000000000e+00 0.0000000000000000e+00 -2.8363175520778661e-02  0.0000000000000000e+00 0.0000000000000000e+00 -2.8582901761223776e-02  0.0000000000000000e+00 0.0000000000000000e+00 -2.8143750412610063e-02  0.0000000000000000e+00 0.0000000000000000e+00 -2.7924629474939584e-02  0.0000000000000000e+00 0.0000000000000000e+00 -2.7705819841882518e-02  0.0000000000000000e+00 0.0000000000000000e+00 -2.7487324638420303e-02  0.0000000000000000e+00 0.0000000000000000e+00 -2.8363176590010433e-02  0.0000000000000000e+00 0.0000000000000000e+00 -2.7924630543750731e-02  0.0000000000000000e+00 0.0000000000000000e+00 -2.8143751593641957e-02  0.0000000000000000e+00 0.0000000000000000e+00 -2.2561485142300372e-02  0.0000000000000000e+00 0.0000000000000000e+00 -2.2351201293415345e-02  0.0000000000000000e+00 0.0000000000000000e+00 -2.2143405234269033e-02  0.0000000000000000e+00 0.0000000000000000e+00 -2.2770186535907410e-02  0.0000000000000000e+00 0.0000000000000000e+00 -2.2559450967957303e-02  0.0000000000000000e+00 0.0000000000000000e+00 -2.2981372115996792e-02  0.0000000000000000e+00 0.0000000000000000e+00 -2.2141379940605107e-02  0.0000000000000000e+00 0.0000000000000000e+00 -2.1934048062953269e-02  0.0000000000000000e+00 0.0000000000000000e+00 -2.1725166067462342e-02  0.0000000000000000e+00 0.0000000000000000e+00 -2.1518777042265073e-02  0.0000000000000000e+00 0.0000000000000000e+00 -2.1727182225670907e-02  0.0000000000000000e+00 0.0000000000000000e+00 -2.1312866649076084e-02  0.0000000000000000e+00 0.0000000000000000e+00 -2.1932027441616854e-02  0.0000000000000000e+00 0.0000000000000000e+00 -2.2349171655690898e-02  0.0000000000000000e+00 0.0000000000000000e+00 -2.2139354917022663e-02  0.0000000000000000e+00 0.0000000000000000e+00 -2.1310859863008885e-02  0.0000000000000000e+00 0.0000000000000000e+00 -2.1105439083624989e-02  0.0000000000000000e+00 0.0000000000000000e+00 -2.0898512542965767e-02  0.0000000000000000e+00 0.0000000000000000e+00 -2.1103437223752287e-02  0.0000000000000000e+00 0.0000000000000000e+00 -2.1516765671766851e-02  0.0000000000000000e+00 0.0000000000000000e+00 -2.1308853358987283e-02  0.0000000000000000e+00 0.0000000000000000e+00 -2.0896515669243099e-02  0.0000000000000000e+00 0.0000000000000000e+00 -2.0692093635124854e-02  0.0000000000000000e+00 0.0000000000000000e+00 -2.0486189011427524e-02  0.0000000000000000e+00 0.0000000000000000e+00 -2.1723150170513645e-02  0.0000000000000000e+00 0.0000000000000000e+00 -2.0694085735620343e-02  0.0000000000000000e+00 0.0000000000000000e+00 -2.0900509699449361e-02  0.0000000000000000e+00 0.0000000000000000e+00 -2.0490163254006884e-02  0.0000000000000000e+00 0.0000000000000000e+00 -2.0488175976759997e-02  0.0000000000000000e+00 0.0000000000000000e+00 -2.0284769210683135e-02  0.0000000000000000e+00 0.0000000000000000e+00 -2.0079902735555516e-02  0.0000000000000000e+00 0.0000000000000000e+00 -1.9877542400024231e-02  0.0000000000000000e+00 0.0000000000000000e+00 -2.0081879880079239e-02  0.0000000000000000e+00 0.0000000000000000e+00 -1.9675712790078074e-02  0.0000000000000000e+00 0.0000000000000000e+00 -2.0282787131090132e-02  0.0000000000000000e+00 0.0000000000000000e+00 -2.1514754577986770e-02  0.0000000000000000e+00 0.0000000000000000e+00 -2.1930007082806190e-02  0.0000000000000000e+00 0.0000000000000000e+00 -2.1721134553891325e-02  0.0000000000000000e+00 0.0000000000000000e+00 -2.1306847117528980e-02  0.0000000000000000e+00 0.0000000000000000e+00 -2.1101435640667222e-02  0.0000000000000000e+00 0.0000000000000000e+00 -2.0894519083516434e-02  0.0000000000000000e+00 0.0000000000000000e+00 -2.0690101824436907e-02  0.0000000000000000e+00 0.0000000000000000e+00 -2.1099434335232148e-02  0.0000000000000000e+00 0.0000000000000000e+00 -2.1512743757242690e-02  0.0000000000000000e+00 0.0000000000000000e+00 -2.1304841175275868e-02  0.0000000000000000e+00 0.0000000000000000e+00 -3.6881319523302980e-02  0.0000000000000000e+00 0.0000000000000000e+00 -3.6653662555920209e-02  0.0000000000000000e+00 0.0000000000000000e+00 -3.7109115130067538e-02  0.0000000000000000e+00 0.0000000000000000e+00 -3.6426148516985966e-02  0.0000000000000000e+00 0.0000000000000000e+00 -3.6198780055177814e-02  0.0000000000000000e+00 0.0000000000000000e+00 -3.6653663039664726e-02  0.0000000000000000e+00 0.0000000000000000e+00 -3.6198780547976615e-02  0.0000000000000000e+00 0.0000000000000000e+00 -3.5971561572214102e-02  0.0000000000000000e+00 0.0000000000000000e+00 -3.5744496276053368e-02  0.0000000000000000e+00 0.0000000000000000e+00 -3.5744495777578038e-02  0.0000000000000000e+00 0.0000000000000000e+00 -3.5517587173337792e-02  0.0000000000000000e+00 0.0000000000000000e+00 -3.5290838540826694e-02  0.0000000000000000e+00 0.0000000000000000e+00 -3.6426149125311856e-02  0.0000000000000000e+00 0.0000000000000000e+00 -3.5971562184905270e-02  0.0000000000000000e+00 0.0000000000000000e+00 -3.6198781276401346e-02  0.0000000000000000e+00 0.0000000000000000e+00 -3.5064254482455183e-02  0.0000000000000000e+00 0.0000000000000000e+00 -3.5290839046629559e-02  0.0000000000000000e+00 0.0000000000000000e+00 -3.4837838359608124e-02  0.0000000000000000e+00 0.0000000000000000e+00 -3.5517587790247926e-02  0.0000000000000000e+00 0.0000000000000000e+00 -3.5064255103864211e-02  0.0000000000000000e+00 0.0000000000000000e+00 -3.5290839779219874e-02  0.0000000000000000e+00 0.0000000000000000e+00 -3.4837839094949086e-02  0.0000000000000000e+00 0.0000000000000000e+00 -3.4611593964367637e-02  0.0000000000000000e+00 0.0000000000000000e+00 -3.4385525131133410e-02  0.0000000000000000e+00 0.0000000000000000e+00 -3.5744497006651409e-02  0.0000000000000000e+00 0.0000000000000000e+00 -3.4837837847436118e-02  0.0000000000000000e+00 0.0000000000000000e+00 -3.4611593338771285e-02  0.0000000000000000e+00 0.0000000000000000e+00 -3.4385523876041081e-02  0.0000000000000000e+00 0.0000000000000000e+00 -3.4159634261070493e-02  0.0000000000000000e+00 0.0000000000000000e+00 -3.4385524394945216e-02  0.0000000000000000e+00 0.0000000000000000e+00 -3.3933928007834721e-02  0.0000000000000000e+00 0.0000000000000000e+00 -3.3933927480437741e-02  0.0000000000000000e+00 0.0000000000000000e+00 -3.3708408446184508e-02  0.0000000000000000e+00 0.0000000000000000e+00 -3.3483080200238990e-02  0.0000000000000000e+00 0.0000000000000000e+00 -3.4159634890506912e-02  0.0000000000000000e+00 0.0000000000000000e+00 -3.5971563029802471e-02  0.0000000000000000e+00 0.0000000000000000e+00 -3.5517588636641791e-02  0.0000000000000000e+00 0.0000000000000000e+00 -3.5744497966984638e-02  0.0000000000000000e+00 0.0000000000000000e+00 -3.5290840739840408e-02  0.0000000000000000e+00 0.0000000000000000e+00 -3.5064255950559980e-02  0.0000000000000000e+00 0.0000000000000000e+00 -3.4837840055129597e-02  0.0000000000000000e+00 0.0000000000000000e+00 -3.4611594812253989e-02  0.0000000000000000e+00 0.0000000000000000e+00 -3.5517589711134036e-02  0.0000000000000000e+00 0.0000000000000000e+00 -3.5064257025035975e-02  0.0000000000000000e+00 0.0000000000000000e+00 -3.5290841928440259e-02  0.0000000000000000e+00 0.0000000000000000e+00 -2.0891629851341065e-02  0.0000000000000000e+00 0.0000000000000000e+00 -2.0687219550203528e-02  0.0000000000000000e+00 0.0000000000000000e+00 -2.0480438911075875e-02  0.0000000000000000e+00 0.0000000000000000e+00 -2.0277051340146363e-02  0.0000000000000000e+00 0.0000000000000000e+00 -2.0483313792412396e-02  0.0000000000000000e+00 0.0000000000000000e+00 -2.0074181434176580e-02  0.0000000000000000e+00 0.0000000000000000e+00 -2.0279919070507631e-02  0.0000000000000000e+00 0.0000000000000000e+00 -2.0071321262177606e-02  0.0000000000000000e+00 0.0000000000000000e+00 -1.9868982942141507e-02  0.0000000000000000e+00 0.0000000000000000e+00 -1.9664330510733099e-02  0.0000000000000000e+00 0.0000000000000000e+00 -1.9871835771092763e-02  0.0000000000000000e+00 0.0000000000000000e+00 -2.0077041913972131e-02  0.0000000000000000e+00 0.0000000000000000e+00 -1.9670020967435326e-02  0.0000000000000000e+00 0.0000000000000000e+00 -1.9667175587442187e-02  0.0000000000000000e+00 0.0000000000000000e+00 -1.9465905849506072e-02  0.0000000000000000e+00 0.0000000000000000e+00 -1.9463068321080270e-02  0.0000000000000000e+00 0.0000000000000000e+00 -1.9874688909024163e-02  0.0000000000000000e+00 0.0000000000000000e+00 -1.9672866664697003e-02  0.0000000000000000e+00 0.0000000000000000e+00 -1.9468743682519631e-02  0.0000000000000000e+00 0.0000000000000000e+00 -1.9471581864881987e-02  0.0000000000000000e+00 0.0000000000000000e+00 -4.4684282724614374e-02  0.0000000000000000e+00 0.0000000000000000e+00 -4.4915054719325595e-02  0.0000000000000000e+00 0.0000000000000000e+00 -4.4453559691829132e-02  0.0000000000000000e+00 0.0000000000000000e+00 -4.5145869420901777e-02  0.0000000000000000e+00 0.0000000000000000e+00 -4.5376729226645596e-02  0.0000000000000000e+00 0.0000000000000000e+00 -4.4915052605387473e-02  0.0000000000000000e+00 0.0000000000000000e+00 -4.5376727056759519e-02  0.0000000000000000e+00 0.0000000000000000e+00 -4.5607627840725758e-02  0.0000000000000000e+00 0.0000000000000000e+00 -4.5838565713756510e-02  0.0000000000000000e+00 0.0000000000000000e+00 -4.5838567895645235e-02  0.0000000000000000e+00 0.0000000000000000e+00 -4.6069543112294498e-02  0.0000000000000000e+00 0.0000000000000000e+00 -4.6300556212962467e-02  0.0000000000000000e+00 0.0000000000000000e+00 -4.5145867375497244e-02  0.0000000000000000e+00 0.0000000000000000e+00 -4.5607625784889493e-02  0.0000000000000000e+00 0.0000000000000000e+00 -4.5376725119031368e-02  0.0000000000000000e+00 0.0000000000000000e+00 -4.6531600924215467e-02  0.0000000000000000e+00 0.0000000000000000e+00 -4.6300553966722981e-02  0.0000000000000000e+00 0.0000000000000000e+00 -4.6762677958669230e-02  0.0000000000000000e+00 0.0000000000000000e+00 -4.6069541009274774e-02  0.0000000000000000e+00 0.0000000000000000e+00 -4.6531598824062201e-02  0.0000000000000000e+00 0.0000000000000000e+00 -4.6300552001843770e-02  0.0000000000000000e+00 0.0000000000000000e+00 -4.6762675957406699e-02  0.0000000000000000e+00 0.0000000000000000e+00 -4.6993785631762527e-02  0.0000000000000000e+00 0.0000000000000000e+00 -4.7224922421483524e-02  0.0000000000000000e+00 0.0000000000000000e+00 -4.5838563751539239e-02  0.0000000000000000e+00 0.0000000000000000e+00 -4.6762680206981225e-02  0.0000000000000000e+00 0.0000000000000000e+00 -4.6993787786888515e-02  0.0000000000000000e+00 0.0000000000000000e+00 -4.7224926713139652e-02  0.0000000000000000e+00 0.0000000000000000e+00 -4.7456090729281114e-02  0.0000000000000000e+00 0.0000000000000000e+00 -4.7224924395943696e-02  0.0000000000000000e+00 0.0000000000000000e+00 -4.7687280809294651e-02  0.0000000000000000e+00 0.0000000000000000e+00 -4.7687283136633896e-02  0.0000000000000000e+00 0.0000000000000000e+00 -4.7918497606231458e-02  0.0000000000000000e+00 0.0000000000000000e+00 -4.8149737629126423e-02  0.0000000000000000e+00 0.0000000000000000e+00 -4.7456088592556345e-02  0.0000000000000000