<?xml version="1.0"?>
<VTKFile type="UnstructuredGrid"  version="0.1"  >
<UnstructuredGrid>
<Piece  NumberOfPoints="1473" NumberOfCells="2752">
<Points>
<DataArray  type="Float64"  NumberOfComponents="3"  format="ascii">9.935168359663109 1.365161978028206 0  9.997364848228942 1.240028151646202 0  9.872093487178645 1.236971854958944 0  9.934289975744482 1.11183802857694 0  9.936046743581734 1.618485927479472 0  9.999121616066198 1.746676050548734 0  9.873850255015896 1.743619753861476 0  9.936925127500359 1.871809876930738 0  9.999121616077563 0.246676050548734 0  9.936925127513621 0.1218098769307382 0  9.873850255027264 0.2436197538614763 0  10.06219648856392 0.1248661736179958 0  9.999999999999979 0 0  10.0613181046415 0.3715422241667299 0  9.936046743591206 0.3684859274794722 0  9.998243232155149 0.493352101097468 0  10.12499999999998 0 0  4.062499999999221 0.1267396444187268 0  4.124999999999964 0 0  3.999999999999964 0 0  4.187499999999222 0.1267396444187268 0  4.249999999999965 0 0  4.124999999998478 0.2534792888374535 0  4.249999999998479 0.2534792888374535 0  4.312499999999222 0.1267396444187268 0  4.374999999998479 0.2534792888374535 0  4.374999999999966 0 0  4.437499999999223 0.1267396444187268 0  4.499999999999966 0 0  4.187499999997735 0.3802189332561803 0  4.312499999997735 0.3802189332561803 0  4.249999999996992 0.506958577674907 0  4.562499999999223 0.1267396444187268 0  4.499999999998479 0.2534792888374535 0  4.624999999998479 0.2534792888374535 0  4.437499999997736 0.3802189332561803 0  4.562499999997736 0.3802189332561803 0  4.499999999996993 0.506958577674907 0  4.624999999996994 0.506958577674907 0  4.687499999997737 0.3802189332561803 0  4.749999999996994 0.506958577674907 0  4.374999999996993 0.506958577674907 0  4.624999999999966 0 0  4.687499999999224 0.1267396444187268 0  4.749999999999967 0 0  4.812499999999224 0.1267396444187268 0  4.74999999999848 0.2534792888374535 0  4.874999999998481 0.2534792888374535 0  4.874999999999968 0 0  4.937499999999225 0.1267396444187268 0  4.999999999999968 0 0  4.812499999997738 0.3802189332561803 0  4.312499999996248 0.6336982220936338 0  4.437499999996249 0.6336982220936338 0  4.374999999995506 0.7604378665123606 0  4.499999999995506 0.7604378665123606 0  4.562499999996249 0.6336982220936338 0  4.624999999995506 0.7604378665123606 0  4.68749999999625 0.6336982220936338 0  4.437499999994762 0.8871775109310873 0  4.562499999994762 0.8871775109310873 0  4.499999999994019 1.013917155349814 0  6.062499999998686 0.1267396444188046 0  6.12499999999997 0 0  5.99999999999997 0 0  6.187499999998687 0.1267396444188046 0  6.249999999999971 0 0  6.124999999997403 0.2534792888376092 0  6.249999999997404 0.2534792888376092 0  6.312499999998687 0.1267396444188046 0  6.374999999997405 0.2534792888376092 0  6.374999999999972 0 0  6.437499999998688 0.1267396444188046 0  6.499999999999972 0 0  6.18749999999612 0.3802189332564138 0  6.31249999999612 0.3802189332564138 0  6.249999999994837 0.5069585776752185 0  6.562499999998688 0.1267396444188046 0  6.499999999997405 0.2534792888376092 0  6.624999999997405 0.2534792888376092 0  6.437499999996121 0.3802189332564138 0  6.562499999996121 0.3802189332564138 0  6.499999999994838 0.5069585776752185 0  6.624999999994838 0.5069585776752185 0  6.687499999996122 0.3802189332564138 0  6.749999999994839 0.5069585776752185 0  6.374999999994838 0.5069585776752185 0  6.624999999999972 0 0  6.687499999998688 0.1267396444188046 0  6.749999999999972 0 0  6.812499999998689 0.1267396444188046 0  6.749999999997407 0.2534792888376092 0  6.874999999997407 0.2534792888376092 0  6.874999999999972 0 0  6.937499999998691 0.1267396444188046 0  6.999999999999973 0 0  6.812499999996123 0.3802189332564138 0  6.312499999993554 0.633698222094023 0  6.437499999993554 0.633698222094023 0  6.374999999992271 0.7604378665128277 0  6.499999999992271 0.7604378665128277 0  6.562499999993554 0.633698222094023 0  6.624999999992271 0.7604378665128277 0  6.687499999993555 0.633698222094023 0  6.437499999990988 0.8871775109316323 0  6.562499999990988 0.8871775109316323 0  6.499999999989704 1.013917155350437 0  2.062499999999721 0.1306909185268306 0  2.124999999999981 0 0  1.999999999999982 0 0  2.18749999999972 0.1306909185268306 0  2.24999999999998 0 0  2.12499999999946 0.2613818370536612 0  2.24999999999946 0.2613818370536612 0  2.312499999999719 0.1306909185268306 0  2.374999999999459 0.2613818370536612 0  2.37499999999998 0 0  2.437499999999719 0.1306909185268306 0  2.499999999999979 0 0  2.1874999999992 0.3920727555804918 0  2.312499999999199 0.3920727555804918 0  2.249999999998939 0.5227636741073225 0  2.562499999999718 0.1306909185268306 0  2.499999999999458 0.2613818370536612 0  2.624999999999457 0.2613818370536612 0  2.437499999999198 0.3920727555804918 0  2.562499999999197 0.3920727555804918 0  2.499999999998937 0.5227636741073225 0  2.624999999998936 0.5227636741073225 0  2.687499999999196 0.3920727555804918 0  2.749999999998935 0.5227636741073225 0  2.374999999998938 0.5227636741073225 0  2.624999999999978 0 0  2.687499999999717 0.1306909185268306 0  2.749999999999977 0 0  2.812499999999716 0.1306909185268306 0  2.749999999999456 0.2613818370536612 0  2.874999999999455 0.2613818370536612 0  2.874999999999976 0 0  2.937499999999715 0.1306909185268306 0  2.999999999999975 0 0  2.812499999999195 0.3920727555804918 0  2.312499999998678 0.6534545926341531 0  2.437499999998677 0.6534545926341531 0  2.374999999998417 0.7841455111609837 0  2.499999999998416 0.7841455111609837 0  2.562499999998676 0.6534545926341531 0  2.624999999998415 0.7841455111609837 0  2.687499999998675 0.6534545926341531 0  2.437499999998156 0.9148364296878144 0  2.562499999998155 0.9148364296878144 0  2.499999999997895 1.045527348214645 0  1.93749999999858 1.858253175473053 0  1.87499999999847 2 0  1.999999999998379 2 0  1.81249999999867 1.858253175473053 0  1.74999999999856 2 0  1.874999999998781 1.716506350946107 0  1.749999999998872 1.716506350946107 0  1.687499999998761 1.858253175473053 0  1.624999999998962 1.716506350946107 0  1.62499999999865 2 0  1.562499999998852 1.858253175473053 0  1.499999999998741 2 0  1.812499999998983 1.574759526419161 0  1.687499999999073 1.574759526419161 0  1.749999999999184 1.433012701892215 0  1.437499999998942 1.858253175473053 0  1.499999999999052 1.716506350946107 0  1.374999999999143 1.716506350946107 0  1.562499999999163 1.574759526419161 0  1.437499999999254 1.574759526419161 0  1.499999999999365 1.433012701892215 0  1.374999999999455 1.433012701892215 0  1.312499999999344 1.574759526419161 0  1.249999999999545 1.433012701892215 0  1.624999999999274 1.433012701892215 0  1.374999999998832 2 0  1.312499999999032 1.858253175473053 0  1.249999999998922 2 0  1.187499999999123 1.858253175473053 0  1.249999999999234 1.716506350946107 0  1.124999999999324 1.716506350946107 0  1.124999999999012 2 0  1.062499999999213 1.858253175473053 0  0.9999999999991025 2 0  1.187499999999435 1.574759526419161 0  1.687499999999385 1.291265877365269 0  1.562499999999476 1.291265877365269 0  1.624999999999586 1.149519052838322 0  1.499999999999677 1.149519052838322 0  1.437499999999566 1.291265877365269 0  1.374999999999767 1.149519052838322 0  1.312499999999656 1.291265877365269 0  1.562499999999787 1.007772228311376 0  1.437499999999877 1.007772228311376 0  1.499999999999988 0.8660254037844294 0  8.062345147225191 0.1309591313976655 0  8.124999999999975 0 0  7.999999999999975 0 0  8.187345147225191 0.1309591313976655 0  8.249999999999975 0 0  8.124690294450405 0.261918262795331 0  8.249690294450405 0.261918262795331 0  8.312345147225191 0.1309591313976655 0  8.374690294450405 0.261918262795331 0  8.374999999999975 0 0  8.437345147225191 0.1309591313976655 0  8.499999999999975 0 0  8.187035441675619 0.3928773941929965 0  8.312035441675619 0.3928773941929965 0  8.249380588900834 0.523836525590662 0  8.562345147225191 0.1309591313976655 0  8.499690294450405 0.261918262795331 0  8.624690294450405 0.261918262795331 0  8.437035441675619 0.3928773941929965 0  8.562035441675619 0.3928773941929965 0  8.499380588900834 0.523836525590662 0  8.624380588900834 0.523836525590662 0  8.687035441675619 0.3928773941929965 0  8.749380588900834 0.523836525590662 0  8.374380588900834 0.523836525590662 0  8.624999999999975 0 0  8.687345147225191 0.1309591313976655 0  8.749999999999975 0 0  8.812345147225191 0.1309591313976655 0  8.749690294450406 0.261918262795331 0  8.874690294450406 0.261918262795331 0  8.874999999999975 0 0  8.937345147225191 0.1309591313976655 0  8.999999999999977 0 0  8.81203544167562 0.3928773941929965 0  8.31172573612605 0.6547956569883275 0  8.43672573612605 0.6547956569883275 0  8.374070883351264 0.785754788385993 0  8.499070883351264 0.785754788385993 0  8.56172573612605 0.6547956569883275 0  8.624070883351264 0.785754788385993 0  8.68672573612605 0.6547956569883275 0  8.436416030576478 0.9167139197836585 0  8.561416030576478 0.9167139197836585 0  8.498761177801693 1.047673051181324 0  9.809896998612809 1.362105681340948 0  9.87297187109727 1.490295804410211 0  9.747700510046972 1.487239507722953 0  9.998243232147571 1.493352101097468 0  9.810775382531434 1.615429630792214 0  9.87121510326002 0.9836479055076783 0  9.996486464310319 0.986704202194936 0  9.809018614694182 1.108781731889682 0  9.74594374220972 0.9805916088204207 0  9.683747253643883 1.105725435202425 0  9.746822126128347 1.233915558271686 0  9.621550765078046 1.230859261584429 0  9.684625637562508 1.359049384653691 0  9.620672381159419 0.977535312133163 0  9.558475892593584 1.102669138515167 0  9.495401020109121 0.9744790154459053 0  9.811925127500167 1.871809876930738 0  9.874999999984631 2 0  9.749999999984439 2 0  9.748850255015705 1.743619753861476 0  9.686925127499977 1.871809876930738 0  9.623850255015515 1.743619753861476 0  9.561925127499787 1.871809876930738 0  9.624999999984249 2 0  9.499999999984059 2 0  9.685775382531244 1.615429630792214 0  9.498850255015325 1.743619753861476 0  9.43692
[...]
<PointData  Vectors="u"> 
<DataArray  type="Float64"  Name="u"  NumberOfComponents="3" format="ascii">0.0000000000000000e+00 0.0000000000000000e+00 -1.9465905849506072e-02  0.0000000000000000e+00 0.0000000000000000e+00 -1.9667175587442187e-02  0.0000000000000000e+00 0.0000000000000000e+00 -1.9262350546588432e-02  0.0000000000000000e+00 0.0000000000000000e+00 -1.9463068321080270e-02  0.0000000000000000e+00 0.0000000000000000e+00 -1.9468743682519631e-02  0.0000000000000000e+00 0.0000000000000000e+00 -1.9672866664697003e-02  0.0000000000000000e+00 0.0000000000000000e+00 -1.9268010630214129e-02  0.0000000000000000e+00 0.0000000000000000e+00 -1.9471581864881987e-02  0.0000000000000000e+00 0.0000000000000000e+00 -1.9672874140094776e-02  0.0000000000000000e+00 0.0000000000000000e+00 -1.9471590569466807e-02  0.0000000000000000e+00 0.0000000000000000e+00 -1.9268018135263451e-02  0.0000000000000000e+00 0.0000000000000000e+00 -1.9877551055220433e-02  0.0000000000000000e+00 0.0000000000000000e+00 -1.9675722561739876e-02  0.0000000000000000e+00 0.0000000000000000e+00 -1.9874695133709219e-02  0.0000000000000000e+00 0.0000000000000000e+00 -1.9468749922076138e-02  0.0000000000000000e+00 0.0000000000000000e+00 -1.9670025946678465e-02  0.0000000000000000e+00 0.0000000000000000e+00 -2.0081889693141362e-02  0.0000000000000000e+00 0.0000000000000000e+00 -3.9950278126026891e-03  0.0000000000000000e+00 0.0000000000000000e+00 -4.1100609252548610e-03  0.0000000000000000e+00 0.0000000000000000e+00 -3.8813739856829814e-03  0.0000000000000000e+00 0.0000000000000000e+00 -4.2264600193281446e-03  0.0000000000000000e+00 0.0000000000000000e+00 -4.3442171154665452e-03  0.0000000000000000e+00 0.0000000000000000e+00 -4.1100595819385036e-03  0.0000000000000000e+00 0.0000000000000000e+00 -4.3442155960260144e-03  0.0000000000000000e+00 0.0000000000000000e+00 -4.4633184826730534e-03  0.0000000000000000e+00 0.0000000000000000e+00 -4.5837550133852028e-03  0.0000000000000000e+00 0.0000000000000000e+00 -4.5837565801104064e-03  0.0000000000000000e+00 0.0000000000000000e+00 -4.7055176343315285e-03  0.0000000000000000e+00 0.0000000000000000e+00 -4.8285943543233314e-03  0.0000000000000000e+00 0.0000000000000000e+00 -4.2264586155294163e-03  0.0000000000000000e+00 0.0000000000000000e+00 -4.4633169710581195e-03  0.0000000000000000e+00 0.0000000000000000e+00 -4.3442141609935161e-03  0.0000000000000000e+00 0.0000000000000000e+00 -4.9529727755728047e-03  0.0000000000000000e+00 0.0000000000000000e+00 -4.8285926689436527e-03  0.0000000000000000e+00 0.0000000000000000e+00 -5.0786441683196301e-03  0.0000000000000000e+00 0.0000000000000000e+00 -4.7055160862370755e-03  0.0000000000000000e+00 0.0000000000000000e+00 -4.9529711450821594e-03  0.0000000000000000e+00 0.0000000000000000e+00 -4.8285911443210561e-03  0.0000000000000000e+00 0.0000000000000000e+00 -5.0786425937829312e-03  0.0000000000000000e+00 0.0000000000000000e+00 -5.2055980781002698e-03  0.0000000000000000e+00 0.0000000000000000e+00 -5.3338241094030379e-03  0.0000000000000000e+00 0.0000000000000000e+00 -4.5837535266145387e-03  0.0000000000000000e+00 0.0000000000000000e+00 -5.0786459064957913e-03  0.0000000000000000e+00 0.0000000000000000e+00 -5.2055997553195196e-03  0.0000000000000000e+00 0.0000000000000000e+00 -5.3338275466536912e-03  0.0000000000000000e+00 0.0000000000000000e+00 -5.4633151959178599e-03  0.0000000000000000e+00 0.0000000000000000e+00 -5.3338257273131172e-03  0.0000000000000000e+00 0.0000000000000000e+00 -5.5940542889430294e-03  0.0000000000000000e+00 0.0000000000000000e+00 -5.5940561669130650e-03  0.0000000000000000e+00 0.0000000000000000e+00 -5.7260363313723891e-03  0.0000000000000000e+00 0.0000000000000000e+00 -5.8592493855409407e-03  0.0000000000000000e+00 0.0000000000000000e+00 -5.4633134591072965e-03  0.0000000000000000e+00 0.0000000000000000e+00 -4.4633155508776853e-03  0.0000000000000000e+00 0.0000000000000000e+00 -4.7055146223790615e-03  0.0000000000000000e+00 0.0000000000000000e+00 -4.5837521137611159e-03  0.0000000000000000e+00 0.0000000000000000e+00 -4.8285897245027316e-03  0.0000000000000000e+00 0.0000000000000000e+00 -4.9529696566492348e-03  0.0000000000000000e+00 0.0000000000000000e+00 -5.0786411364311199e-03  0.0000000000000000e+00 0.0000000000000000e+00 -5.2055965527316546e-03  0.0000000000000000e+00 0.0000000000000000e+00 -4.7055132362446078e-03  0.0000000000000000e+00 0.0000000000000000e+00 -4.9529682563033790e-03  0.0000000000000000e+00 0.0000000000000000e+00 -4.8285883407399562e-03  0.0000000000000000e+00 0.0000000000000000e+00 -8.3024677572936731e-03  0.0000000000000000e+00 0.0000000000000000e+00 -8.4561350589634592e-03  0.0000000000000000e+00 0.0000000000000000e+00 -8.1498563993225234e-03  0.0000000000000000e+00 0.0000000000000000e+00 -8.6108447768531420e-03  0.0000000000000000e+00 0.0000000000000000e+00 -8.7665916677846893e-03  0.0000000000000000e+00 0.0000000000000000e+00 -8.4561330403692091e-03  0.0000000000000000e+00 0.0000000000000000e+00 -8.7665896028740250e-03  0.0000000000000000e+00 0.0000000000000000e+00 -8.9233621806952216e-03  0.0000000000000000e+00 0.0000000000000000e+00 -9.0811491692982770e-03  0.0000000000000000e+00 0.0000000000000000e+00 -9.0811512633853769e-03  0.0000000000000000e+00 0.0000000000000000e+00 -9.2399453747575907e-03  0.0000000000000000e+00 0.0000000000000000e+00 -9.3997396065788000e-03  0.0000000000000000e+00 0.0000000000000000e+00 -8.6108428315443374e-03  0.0000000000000000e+00 0.0000000000000000e+00 -8.9233602130581405e-03  0.0000000000000000e+00 0.0000000000000000e+00 -8.7665877582543735e-03  0.0000000000000000e+00 0.0000000000000000e+00 -9.5605204277019722e-03  0.0000000000000000e+00 0.0000000000000000e+00 -9.3997374719002932e-03  0.0000000000000000e+00 0.0000000000000000e+00 -9.7222809357787199e-03  0.0000000000000000e+00 0.0000000000000000e+00 -9.2399433767196594e-03  0.0000000000000000e+00 0.0000000000000000e+00 -9.5605184073493284e-03  0.0000000000000000e+00 0.0000000000000000e+00 -9.3997355923161555e-03  0.0000000000000000e+00 0.0000000000000000e+00 -9.7222790378369492e-03  0.0000000000000000e+00 0.0000000000000000e+00 -9.8850120591080469e-03  0.0000000000000000e+00 0.0000000000000000e+00 -1.0048704754145502e-02  0.0000000000000000e+00 0.0000000000000000e+00 -9.0811472997963001e-03  0.0000000000000000e+00 0.0000000000000000e+00 -9.7222831075654981e-03  0.0000000000000000e+00 0.0000000000000000e+00 -9.8850141026549012e-03  0.0000000000000000e+00 0.0000000000000000e+00 -1.0048708854674644e-02  0.0000000000000000e+00 0.0000000000000000e+00 -1.0213353824408100e-02  0.0000000000000000e+00 0.0000000000000000e+00 -1.0048706645758845e-02  0.0000000000000000e+00 0.0000000000000000e+00 -1.0378942385953407e-02  0.0000000000000000e+00 0.0000000000000000e+00 -1.0378944649698395e-02  0.0000000000000000e+00 0.0000000000000000e+00 -1.0545467695405547e-02  0.0000000000000000e+00 0.0000000000000000e+00 -1.0712918897333674e-02  0.0000000000000000e+00 0.0000000000000000e+00 -1.0213351763186836e-02  0.0000000000000000e+00 0.0000000000000000e+00 -8.9233584721022125e-03  0.0000000000000000e+00 0.0000000000000000e+00 -9.2399416262811691e-03  0.0000000000000000e+00 0.0000000000000000e+00 -9.0811456817148067e-03  0.0000000000000000e+00 0.0000000000000000e+00 -9.3997339553605532e-03  0.0000000000000000e+00 0.0000000000000000e+00 -9.5605166494247169e-03  0.0000000000000000e+00 0.0000000000000000e+00 -9.7222774149559980e-03  0.0000000000000000e+00 0.0000000000000000e+00 -9.8850102990826645e-03  0.0000000000000000e+00 0.0000000000000000e+00 -9.2399401292561183e-03  0.0000000000000000e+00 0.0000000000000000e+00 -9.5605151519487664e-03  0.0000000000000000e+00 0.0000000000000000e+00 -9.3997326083399262e-03  0.0000000000000000e+00 0.0000000000000000e+00 -1.1024250409698278e-03  0.0000000000000000e+00 0.0000000000000000e+00 -1.1677764531421676e-03  0.0000000000000000e+00 0.0000000000000000e+00 -1.0388158074962209e-03  0.0000000000000000e+00 0.0000000000000000e+00 -1.2348644586557763e-03  0.0000000000000000e+00 0.0000000000000000e+00 -1.3036710318397660e-03  0.0000000000000000e+00 0.0000000000000000e+00 -1.1677789612278043e-03  0.0000000000000000e+00 0.0000000000000000e+00 -1.3036732697212293e-03  0.0000000000000000e+00 0.0000000000000000e+00 -1.3741891694698275e-03  0.0000000000000000e+00 0.0000000000000000e+00 -1.4464043553536559e-03  0.0000000000000000e+00 0.0000000000000000e+00 -1.4464032156472995e-03  0.0000000000000000e+00 0.0000000000000000e+00 -1.5203037829386297e-03  0.0000000000000000e+00 0.0000000000000000e+00 -1.5958763247661439e-03  0.0000000000000000e+00 0.0000000000000000e+00 -1.2348660680893456e-03  0.0000000000000000e+00 0.0000000000000000e+00 -1.3741908971272258e-03  0.0000000000000000e+00 0.0000000000000000e+00 -1.3036742509714525e-03  0.0000000000000000e+00 0.0000000000000000e+00 -1.6731114562842870e-03  0.0000000000000000e+00 0.0000000000000000e+00 -1.5958774085691419e-03  0.0000000000000000e+00 0.0000000000000000e+00 -1.7519961088458618e-03  0.0000000000000000e+00 0.0000000000000000e+00 -1.5203045452444343e-03  0.0000000000000000e+00 0.0000000000000000e+00 -1.6731122140843462e-03  0.0000000000000000e+00 0.0000000000000000e+00 -1.5958778950174940e-03  0.0000000000000000e+00 0.0000000000000000e+00 -1.7519964609382433e-03  0.0000000000000000e+00 0.0000000000000000e+00 -1.8325183702380501e-03  0.0000000000000000e+00 0.0000000000000000e+00 -1.9146665222734723e-03  0.0000000000000000e+00 0.0000000000000000e+00 -1.4464055350143327e-03  0.0000000000000000e+00 0.0000000000000000e+00 -1.7519959972822092e-03  0.0000000000000000e+00 0.0000000000000000e+00 -1.8325183658507650e-03  0.0000000000000000e+00 0.0000000000000000e+00 -1.9146666059054282e-03  0.0000000000000000e+00 0.0000000000000000e+00 -1.9984292206592091e-03  0.0000000000000000e+00 0.0000000000000000e+00 -1.9146665889295696e-03  0.0000000000000000e+00 0.0000000000000000e+00 -2.0837944409984907e-03  0.0000000000000000e+00 0.0000000000000000e+00 -2.0837951903300684e-03  0.0000000000000000e+00 0.0000000000000000e+00 -2.1707511825079366e-03  0.0000000000000000e+00 0.0000000000000000e+00 -2.2592876895529976e-03  0.0000000000000000e+00 0.0000000000000000e+00 -1.9984290608874491e-03  0.0000000000000000e+00 0.0000000000000000e+00 -1.3741915261806636e-03  0.0000000000000000e+00 0.0000000000000000e+00 -1.5203051031927922e-03  0.0000000000000000e+00 0.0000000000000000e+00 -1.4464057128778739e-03  0.0000000000000000e+00 0.0000000000000000e+00 -1.5958779201542001e-03  0.0000000000000000e+00 0.0000000000000000e+00 -1.6731124357575661e-03  0.0000000000000000e+00 0.0000000000000000e+00 -1.7519963081838292e-03  0.0000000000000000e+00 0.0000000000000000e+00 -1.8325183137955275e-03  0.0000000000000000e+00 0.0000000000000000e+00 -1.5203048105692045e-03  0.0000000000000000e+00 0.0000000000000000e+00 -1.6731118413041816e-03  0.0000000000000000e+00 0.0000000000000000e+00 -1.5958769132686846e-03  0.0000000000000000e+00 0.0000000000000000e+00 -9.7696237904561591e-04  0.0000000000000000e+00 0.0000000000000000e+00 -9.1688055146296721e-04  0.0000000000000000e+00 0.0000000000000000e+00 -1.0388099590282608e-03  0.0000000000000000e+00 0.0000000000000000e+00 -8.5858482820494919e-04  0.0000000000000000e+00 0.0000000000000000e+00 -8.0207879780878574e-04  0.0000000000000000e+00 0.0000000000000000e+00 -9.1688519998298600e-04  0.0000000000000000e+00 0.0000000000000000e+00 -8.0208610238239296e-04  0.0000000000000000e+00 0.0000000000000000e+00 -7.4738696847918276e-04  0.0000000000000000e+00 0.0000000000000000e+00 -6.9451389521973971e-04  0.0000000000000000e+00 0.0000000000000000e+00 -6.9450663522263557e-04  0.0000000000000000e+00 0.0000000000000000e+00 -6.4346527968235981e-04  0.0000000000000000e+00 0.0000000000000000e+00 -5.9426010283243407e-04  0.0000000000000000e+00 0.0000000000000000e+00 -8.5859164331736880e-04  0.0000000000000000e+00 0.0000000000000000e+00 -7.4739363727055279e-04  0.0000000000000000e+00 0.0000000000000000e+00 -8.0209209973590445e-04  0.0000000000000000e+00 0.0000000000000000e+00 -5.4692274879267341e-04  0.0000000000000000e+00 0.0000000000000000e+00 -5.9427031460795626e-04  0.0000000000000000e+00 0.0000000000000000e+00 -5.0145311633859263e-04  0.0000000000000000e+00 0.0000000000000000e+00 -6.4347423511114268e-04  0.0000000000000000e+00 0.0000000000000000e+00 -5.4693107226714784e-04  0.0000000000000000e+00 0.0000000000000000e+00 -5.9427739480893732e-04  0.0000000000000000e+00 0.0000000000000000e+00 -5.0146141952278546e-04  0.0000000000000000e+00 0.0000000000000000e+00 -4.5786698783462402e-04  0.0000000000000000e+00 0.0000000000000000e+00 -4.1617257930557993e-04  0.0000000000000000e+00 0.0000000000000000e+00 -6.9452155002105520e-04  0.0000000000000000e+00 0.0000000000000000e+00 -5.0144358555572486e-04  0.0000000000000000e+00 0.0000000000000000e+00 -4.5785649563075289e-04  0.0000000000000000e+00 0.0000000000000000e+00 -4.1615360302005777e-04  0.0000000000000000e+00 0.0000000000000000e+00 -3.7637238736364976e-04  0.0000000000000000e+00 0.0000000000000000e+00 -4.1616630544322620e-04  0.0000000000000000e+00 0.0000000000000000e+00 -3.3850840894205367e-04  0.0000000000000000e+00 0.0000000000000000e+00 -3.3849988415887472e-04  0.0000000000000000e+00 0.0000000000000000e+00 -3.0256734182662127e-04  0.0000000000000000e+00 0.0000000000000000e+00 -2.6857731555108048e-04  0.0000000000000000e+00 0.0000000000000000e+00 -3.7638048726969058e-04  0.0000000000000000e+00 0.0000000000000000e+00 -7.4739981177300227e-04  0.0000000000000000e+00 0.0000000000000000e+00 -6.4347966083043375e-04  0.0000000000000000e+00 0.0000000000000000e+00 -6.9452564246095172e-04  0.0000000000000000e+00 0.0000000000000000e+00 -5.9428175870109067e-04  0.0000000000000000e+00 0.0000000000000000e+00 -5.4693747499795487e-04  0.0000000000000000e+00 0.0000000000000000e+00 -5.0146400020429618e-04  0.0000000000000000e+00 0.0000000000000000e+00 -4.5787149713963945e-04  0.0000000000000000e+00 0.0000000000000000e+00 -6.4348228432131640e-04  0.0000000000000000e+00 0.0000000000000000e+00 -5.4693775391090977e-04  0.0000000000000000e+00 0.0000000000000000e+00 -5.9428138570653594e-04  0.0000000000000000e+00 0.0000000000000000e+00 -1.3692352102039375e-02  0.0000000000000000e+00 0.0000000000000000e+00 -1.3875447528223242e-02  0.0000000000000000e+00 0.0000000000000000e+00 -1.3510934563611172e-02  0.0000000000000000e+00 0.0000000000000000e+00 -1.4058399392197860e-02  0.0000000000000000e+00 0.0000000000000000e+00 -1.4243020840823692e-02  0.0000000000000000e+00 0.0000000000000000e+00 -1.3874538814261489e-02  0.0000000000000000e+00 0.0000000000000000e+00 -1.4242104487406421e-02  0.0000000000000000e+00 0.0000000000000000e+00 -1.4427474964372461e-02  0.0000000000000000e+00 0.0000000000000000e+00 -1.4612666530987344e-02  0.0000000000000000e+00 0.0000000000000000e+00 -1.4613590344430525e-02  0.0000000000000000e+00 0.0000000000000000e+00 -1.4799515080217828e-02  0.0000000000000000e+00 0.0000000000000000e+00 -1.4987092676652387e-02  0.0000000000000000e+00 0.0000000000000000e+00 -1.4057486845336208e-02  0.0000000000000000e+00 0.0000000000000000e+00 -1.4426554933672111e-02  0.0000000000000000e+00 0.0000000000000000e+00 -1.4241188224946938e-02  0.0000000000000000e+00 0.0000000000000000e+00 -1.5174456619956552e-02  0.0000000000000000e+00 0.0000000000000000e+00 -1.4986161559460339e-02  0.0000000000000000e+00 0.0000000000000000e+00 -1.5362526826086057e-02  0.0000000000000000e+00 0.0000000000000000e+00 -1.4798587703702199e-02  0.0000000000000000e+00 0.0000000000000000e+00 -1.5173522064800308e-02  0.0000000000000000e+00 0.0000000000000000e+00 -1.4985230704340925e-02  0.0000000000000000e+00 0.0000000000000000e+00 -1.5361588897995854e-02  0.0000000000000000e+00 0.0000000000000000e+00 -1.5551295634300098e-02  0.0000000000000000e+00 0.0000000000000000e+00 -1.5740755433180372e-02  0.0000000000000000e+00 0.0000000000000000e+00 -1.4611742905497988e-02  0.0000000000000000e+00 0.0000000000000000e+00 -1.5363465091092234e-02  0.0000000000000000e+00 0.0000000000000000e+00 -1.5552237226356718e-02  0.0000000000000000e+00 0.0000000000000000e+00 -1.5742645522513279e-02  0.0000000000000000e+00 0.0000000000000000e+00 -1.5932795135519772e-02  0.0000000000000000e+00 0.0000000000000000e+00 -1.5741700262349709e-02  0.0000000000000000e+00 0.0000000000000000e+00 -1.6123620515748754e-02  0.0000000000000000e+00 0.0000000000000000e+00 -1.6124572636902673e-02  0.0000000000000000e+00 0.0000000000000000e+00 -1.6316069324621874e-02  0.0000000000000000e+00 0.0000000000000000e+00 -1.6509185675288619e-02  0.0000000000000000e+00 0.0000000000000000e+00 -1.5931846680311210e-02  0.0000000000000000e+00 0.0000000000000000e+00 -1.4425635072922797e-02  0.0000000000000000e+00 0.0000000000000000e+00 -1.4797660553456174e-02  0.0000000000000000e+00 0.0000000000000000e+00 -1.4610819492747895e-02  0.0000000000000000e+00 0.0000000000000000e+00 -1.4984300111189416e-02  0.0000000000000000e+00 0.0000000000000000e+00 -1.5172587805330574e-02  0.0000000000000000e+00 0.0000000000000000e+00 -1.5360651276498438e-02  0.0000000000000000e+00 0.0000000000000000e+00 -1.5550354395179529e-02  0.0000000000000000e+00 0.0000000000000000e+00 -1.4796733665785688e-02  0.0000000000000000e+00 0.0000000000000000e+00 -1.5171653805426883e-02  0.0000000000000000e+00 0.0000000000000000e+00 -1.4983369779734204e-02  0.0000000000000000e+00 0.0000000000000000e+00 -1.9062183935813857e-02  0.0000000000000000e+00 0.0000000000000000e+00 -1.9265180430564056e-02  0.0000000000000000e+00 0.0000000000000000e+00 -1.8862575268278909e-02  0.0000000000000000e+00 0.0000000000000000e+00 -1.9670020967435326e-02  0.0000000000000000e+00 0.0000000000000000e+00 -1.9065006075393468e-02  0.0000000000000000e+00 0.0000000000000000e+00 -1.9259520939581661e-02  0.0000000000000000e+00 0.0000000000000000e+00 -1.9664330510733099e-02  0.0000000000000000e+00 0.0000000000000000e+00 -1.9059362072283894e-02  0.0000000000000000e+00 0.0000000000000000e+00 -1.8856947518088286e-02  0.0000000000000000e+00 0.0000000000000000e+00 -1.8657919540321598e-02  0.0000000000000000e+00 0.0000000000000000e+00 -1.8859761264532256e-02  0.0000000000000000e+00 0.0000000000000000e+00 -1.8459463388690239e-02  0.0000000000000000e+00 0.0000000000000000e+00 -1.8660725319380116e-02  0.0000000000000000e+00 0.0000000000000000e+00 -1.8456665896557485e-02  0.0000000000000000e+00 0.0000000000000000e+00 -1.8258796671361519e-02  0.0000000000000000e+00 0.0000000000000000e+00 -1.8058732414135498e-02  0.0000000000000000e+00 0.0000000000000000e+00 -1.9068700687329541e-02  0.0000000000000000e+00 0.0000000000000000e+00 -1.9271715809306929e-02  0.0000000000000000e+00 0.0000000000000000e+00 -1.8869943619959251e-02  0.0000000000000000e+00 0.0000000000000000e+00 -1.8866259225373976e-02  0.0000000000000000e+00 0.0000000000000000e+00 -1.8668072116722487e-02  0.0000000000000000e+00 0.0000000000000000e+00 -1.8466788409725054e-02  0.0000000000000000e+00 0.0000000000000000e+00 -1.8269751749513129e-02  0.0000000000000000e+00 0.0000000000000000e+00 -1.8470451513146729e-02  0.0000000000000000e+00 0.0000000000000000e+00 -1.8073295418870296e-02  0.0000000000000000e+00 0.0000000000000000e+00 -1.8664398515457346e-02  0.0000000000000000e+00 0.0000000000000000e+00 -1.8069654128323516e-02  0.0000000000000000e+00 0.0000000000000000e+00 -1.7873795906537912e-02  0.0000000000000000e+00 0.0000000000000000e+00 -1.7674913021475679e-02  0.0000000000000000e+00 0.0000000000000000e+00 -1.7870165899028911e-02  0.0000000000000000e+00 0.0000000000000000e+00 -1.8266099691814006e-02  0.0000000000000000e+00 0.0000000000000000e+00 -1.8066013210841055e-02  0.0000000000000000e+00 0.0000000000000000e+00 -1.7671294405543644e-02  0.0000000000000000e+00 0.0000000000000000e+00 -1.7476654111919024e-02  0.0000000000000000e+00 0.0000000000000000e+00 -1.7279026597121834e-02  0.0000000000000000e+00 0.0000000000000000e+00 -1.8463125715011412e-02  0.0000000000000000e+00 0.0000000000000000e+00 -1.7480261533406611e-02  0.0000000000000000e+00 0.0000000000000000e+00 -1.7678531966483921e-02  0.0000000000000000