<?xml version="1.0"?>
<VTKFile type="UnstructuredGrid"  version="0.1"  >
<UnstructuredGrid>
<Piece  NumberOfPoints="777" NumberOfCells="1376">
<Points>
<DataArray  type="Float64"  NumberOfComponents="3"  format="ascii">3.999999999999964 0 0  4.249999999999965 0 0  4.124999999998478 0.2534792888374535 0  4.374999999998479 0.2534792888374535 0  4.499999999999966 0 0  4.249999999996992 0.506958577674907 0  4.624999999998479 0.2534792888374535 0  4.499999999996993 0.506958577674907 0  4.749999999996994 0.506958577674907 0  4.749999999999967 0 0  4.874999999998481 0.2534792888374535 0  4.999999999999968 0 0  4.374999999995506 0.7604378665123606 0  4.624999999995506 0.7604378665123606 0  4.499999999994019 1.013917155349814 0  5.99999999999997 0 0  6.249999999999971 0 0  6.124999999997403 0.2534792888376092 0  6.374999999997405 0.2534792888376092 0  6.499999999999972 0 0  6.249999999994837 0.5069585776752185 0  6.624999999997405 0.2534792888376092 0  6.499999999994838 0.5069585776752185 0  6.749999999994839 0.5069585776752185 0  6.749999999999972 0 0  6.874999999997407 0.2534792888376092 0  6.999999999999973 0 0  6.374999999992271 0.7604378665128277 0  6.624999999992271 0.7604378665128277 0  6.499999999989704 1.013917155350437 0  1.999999999999982 0 0  2.24999999999998 0 0  2.12499999999946 0.2613818370536612 0  2.374999999999459 0.2613818370536612 0  2.499999999999979 0 0  2.249999999998939 0.5227636741073225 0  2.624999999999457 0.2613818370536612 0  2.499999999998937 0.5227636741073225 0  2.749999999998935 0.5227636741073225 0  2.749999999999977 0 0  2.874999999999455 0.2613818370536612 0  2.999999999999975 0 0  2.374999999998417 0.7841455111609837 0  2.624999999998415 0.7841455111609837 0  2.499999999997895 1.045527348214645 0  1.999999999998379 2 0  1.74999999999856 2 0  1.874999999998781 1.716506350946107 0  1.624999999998962 1.716506350946107 0  1.499999999998741 2 0  1.749999999999184 1.433012701892215 0  1.374999999999143 1.716506350946107 0  1.499999999999365 1.433012701892215 0  1.249999999999545 1.433012701892215 0  1.249999999998922 2 0  1.124999999999324 1.716506350946107 0  0.9999999999991025 2 0  1.624999999999586 1.149519052838322 0  1.374999999999767 1.149519052838322 0  1.499999999999988 0.8660254037844294 0  7.999999999999975 0 0  8.249999999999975 0 0  8.124690294450405 0.261918262795331 0  8.374690294450405 0.261918262795331 0  8.499999999999975 0 0  8.249380588900834 0.523836525590662 0  8.624690294450405 0.261918262795331 0  8.499380588900834 0.523836525590662 0  8.749380588900834 0.523836525590662 0  8.749999999999975 0 0  8.874690294450406 0.261918262795331 0  8.999999999999977 0 0  8.374070883351264 0.785754788385993 0  8.624070883351264 0.785754788385993 0  8.498761177801693 1.047673051181324 0  18.99999999999849 2 0  18.74999999999811 2 0  18.87499999999887 1.71650635094611 0  18.62499999999849 1.71650635094611 0  18.49999999999773 2 0  18.74999999999925 1.433012701892219 0  18.37499999999811 1.71650635094611 0  18.49999999999887 1.433012701892219 0  18.24999999999849 1.433012701892219 0  18.24999999999736 2 0  18.12499999999773 1.71650635094611 0  17.99999999999698 2 0  18.62499999999962 1.149519052838329 0  18.37499999999925 1.149519052838329 0  18.5 0.8660254037844386 0  16.99999999999547 2 0  16.74999999999509 2 0  16.87499999999629 1.746520711162699 0  16.62499999999591 1.746520711162699 0  16.49999999999471 2 0  16.7499999999971 1.493041422325399 0  16.37499999999553 1.746520711162699 0  16.49999999999672 1.493041422325399 0  16.24999999999635 1.493041422325399 0  16.24999999999434 2 0  16.12499999999515 1.746520711162699 0  15.99999999999396 2 0  16.62499999999792 1.239562133488098 0  16.37499999999754 1.239562133488098 0  16.49999999999874 0.9860828446507974 0  12.99999999998939 2 0  12.74999999998901 2 0  12.87499999999136 1.74652071116254 0  12.62499999999098 1.74652071116254 0  12.49999999998862 2 0  12.74999999999334 1.49304142232508 0  12.3749999999906 1.74652071116254 0  12.49999999999295 1.49304142232508 0  12.24999999999257 1.49304142232508 0  12.24999999998824 2 0  12.12499999999022 1.74652071116254 0  11.99999999998786 2 0  12.62499999999531 1.239562133487619 0  12.37499999999493 1.239562133487619 0  12.49999999999728 0.9860828446501591 0  10.99999999998634 2 0  10.74999999998596 2 0  10.87439297711764 1.749732347235992 0  10.62439297711725 1.749732347235992 0  10.49999999998558 2 0  10.74878595424893 1.499464694471983 0  10.37439297711687 1.749732347235992 0  10.49878595424855 1.499464694471983 0  10.24878595424817 1.499464694471983 0  10.2499999999852 2 0  10.1243929771165 1.749732347235992 0  9.999999999984821 2 0  10.62317893138022 1.249197041707975 0  10.37317893137984 1.249197041707975 0  10.49757190851152 0.9989293889439668 0  14.99999999999243 2 0  14.74999999999205 2 0  14.87499999999383 1.74652071116262 0  14.62499999999345 1.74652071116262 0  14.49999999999167 2 0  14.74999999999522 1.493041422325239 0  14.37499999999307 1.74652071116262 0  14.49999999999484 1.493041422325239 0  14.24999999999446 1.493041422325239 0  14.24999999999129 2 0  14.12499999999268 1.74652071116262 0  13.99999999999091 2 0  14.62499999999661 1.239562133487858 0  14.37499999999624 1.239562133487858 0  14.49999999999801 0.9860828446504779 0  10.24702918641092 0.9928167955694513 0  10.12263620927924 1.24308444833346 0  9.996486464310319 0.986704202194936 0  9.998243232147571 1.493352101097468 0  9.872093487178645 1.236971854958944 0  9.747700510046972 1.487239507722953 0  9.873850255015896 1.743619753861476 0  9.74594374220972 0.9805916088204207 0  9.621550765078046 1.230859261584429 0  9.495401020109121 0.9744790154459053 0  9.749999999984439 2 0  9.623850255015515 1.743619753861476 0  9.499999999984059 2 0  9.373850255015135 1.743619753861476 0  9.497700510046592 1.487239507722953 0  9.24770051004621 1.487239507722953 0  9.249999999983679 2 0  9.123850255014755 1.743619753861476 0  8.999999999983299 2 0  9.371550765077664 1.230859261584429 0  3.999999999993654 2 0  3.749999999994383 2 0  3.874999999994342 1.744460791439874 0  3.624999999995071 1.744460791439874 0  3.499999999995112 2 0  3.74999999999503 1.488921582879748 0  3.3749999999958 1.744460791439874 0  3.499999999995759 1.488921582879748 0  3.249999999996488 1.488921582879748 0  3.249999999995841 2 0  3.124999999996529 1.744460791439874 0  2.99999999999657 2 0  3.624999999995718 1.233382374319621 0  3.374999999996447 1.233382374319621 0  3.499999999996406 0.9778431657594949 0  5.99999999998782 2 0  5.74999999998855 2 0  5.87499999998929 1.751159762945844 0  5.62499999999002 1.751159762945844 0  5.499999999989278 2 0  5.749999999990761 1.502319525891687 0  5.374999999990749 1.751159762945844 0  5.49999999999149 1.502319525891687 0  5.24999999999222 1.502319525891687 0  5.249999999990007 2 0  5.124999999991478 1.751159762945844 0  4.999999999990736 2 0  5.624999999992232 1.253479288837531 0  5.37499999999296 1.253479288837531 0  5.499999999993702 1.004639051783375 0  16.99999999999999 0 0  17.24999999999999 0 0  17.1249999999998 0.2593847116342085 0  17.37499999999981 0.2593847116342085 0  17.49999999999999 0 0  17.24999999999962 0.518769423268417 0  17.62499999999981 0.2593847116342085 0  17.49999999999962 0.518769423268417 0  17.74999999999962 0.518769423268417 0  17.75 0 0  17.87499999999981 0.2593847116342085 0  18 0 0  17.37499999999944 0.7781541349026255 0  17.62499999999944 0.7781541349026255 0  17.49999999999925 1.037538846536834 0  14.99999999999999 0 0  15.24999999999999 0 0  15.12499999999929 0.2488402370542198 0  15.37499999999929 0.2488402370542198 0  15.49999999999999 0 0  15.24999999999858 0.4976804741084396 0  15.62499999999929 0.2488402370542198 0  15.49999999999858 0.4976804741084396 0  15.74999999999858 0.4976804741084396 0  15.74999999999999 0 0  15.87499999999929 0.2488402370542198 0  15.99999999999999 0 0  15.37499999999788 0.7465207111626594 0  15.62499999999788 0.7465207111626594 0  15.49999999999718 0.9953609482168791 0  7.999999999982053 2 0  7.749999999982765 2 0  7.874963130275843 1.744524651647608 0  7.624963130276555 1.744524651647608 0  7.499999999983477 2 0  7.749926260569634 1.489049303295215 0  7.374963130277267 1.744524651647608 0  7.499926260570346 1.489049303295215 0  7.249926260571058 1.489049303295215 0  7.24999999998419 2 0  7.12496313027798 1.744524651647608 0  6.999999999984902 2 0  7.624889390863425 1.233573954942823 0  7.374889390864137 1.233573954942823 0  7.499852521157216 0.9780986065904302 0  12.99999999999999 0 0  13.24999999999999 0 0  13.12499999999898 0.2488402370541932 0  13.37499999999898 0.2488402370541932 0  13.49999999999999 0 0  13.24999999999796 0.4976804741083863 0  13.62499999999898 0.2488402370541932 0  13.49999999999796 0.4976804741083863 0  13.74999999999796 0.4976804741083863 0  13.74999999999999 0 0  13.87499999999898 0.2488402370541932 0  13.99999999999999 0 0  13.37499999999694 0.7465207111625796 0  13.62499999999694 0.7465207111625796 0  13.49999999999593 0.9953609482167727 0  10.99999999999998 0 0  11.24999999999998 0 0  11.12489882952011 0.2493755097330886 0  11.37489882952011 0.2493755097330886 0  11.49999999999998 0 0  11.24979765904023 0.4987510194661772 0  11.62489882952011 0.2493755097330886 0  11.49979765904023 0.4987510194661772 0  11.74979765904023 0.4987510194661772 0  11.74999999999998 0 0  11.87489882952011 0.2493755097330886 0  11.99999999999998 0 0  11.37469648856036 0.7481265291992658 0  11.62469648856036 0.7481265291992658 0  11.49959531808049 0.9975020389323543 0  6.749963130281582 1.004962518160435 0  6.874963130284149 0.751483229322826 0  6.99992626057346 0.9960078809704336 0  6.999963130286717 0.4980039404852168 0  7.124926260576027 0.7425285921328244 0  7.249926260578595 0.4890493032952151 0  7.124963130289284 0.2445246516476076 0  7.249889390865338 0.9870532437804319 0  7.374889390867905 0.7335739549428226 0  4.74999999999394 1.011597629458204 0  4.874999999995428 0.7581183406207508 0  4.999999999993861 1.009278103566595 0  4.999999999996
[...]
<PointData  Scalars="f_19"> 
<DataArray  type="Float64"  Name="f_19"  format="ascii">2.0000000000000001e-01  2.0000000000000001e-01  2.0000000000000001e-01  2.0000000000000001e-01  2.0000000000000001e-01  2.0000000000000001e-01  2.0000000000000001e-01  2.0000000000000001e-01  2.0000000000000001e-01  2.0000000000000001e-01  2.0000000000000001e-01  2.0000000000000001e-01  2.0000000000000001e-01  2.0000000000000001e-01  2.0000000000000001e-01  2.0000000000000001e-01  2.0000000000000001e-01  2.0000000000000001e-01  2.0000000000000001e-01  2.0000000000000001e-01  2.0000000000000001e-01  2.0000000000000001e-01  2.0000000000000001e-01  2.0000000000000001e-01  2.0000000000000001e-01  2.0000000000000001e-01  2.0000000000000001e-01  2.0000000000000001e-01  2.0000000000000001e-01  2.0000000000000001e-01  2.0000000000000001e-01  2.0000000000000001e-01  2.0000000000000001e-01  2.0000000000000001e-01  2.0000000000000001e-01  2.0000000000000001e-01  2.0000000000000001e-01  2.0000000000000001e-01  2.0000000000000001e-01  2.0000000000000001e-01  2.0000000000000001e-01  2.0000000000000001e-01  2.0000000000000001e-01  2.0000000000000001e-01  2.0000000000000001e-01  2.0000000000000001e-01  2.0000000000000001e-01  2.0000000000000001e-01  2.0000000000000001e-01  2.0000000000000001e-01  2.0000000000000001e-01  2.0000000000000001e-01  2.0000000000000001e-01  2.0000000000000001e-01  2.0000000000000001e-01  2.0000000000000001e-01  2.0000000000000001e-01  2.0000000000000001e-01  2.0000000000000001e-01  2.0000000000000001e-01  2.0000000000000001e-01  2.0000000000000001e-01  2.0000000000000001e-01  2.0000000000000001e-01  2.0000000000000001e-01  2.0000000000000001e-01  2.0000000000000001e-01  2.0000000000000001e-01  2.0000000000000001e-01  2.0000000000000001e-01  2.0000000000000001e-01  2.0000000000000001e-01  2.0000000000000001e-01  2.0000000000000001e-01  2.0000000000000001e-01  2.0000000000000001e-01  2.0000000000000001e-01  2.0000000000000001e-01  2.0000000000000001e-01  2.0000000000000001e-01  2.0000000000000001e-01  2.0000000000000001e-01  2.0000000000000001e-01  2.0000000000000001e-01  2.0000000000000001e-01  2.0000000000000001e-01  2.0000000000000001e-01  2.0000000000000001e-01  2.0000000000000001e-01  2.0000000000000001e-01  2.0000000000000001e-01  2.0000000000000001e-01  2.0000000000000001e-01  2.0000000000000001e-01  2.0000000000000001e-01  2.0000000000000001e-01  2.0000000000000001e-01  2.0000000000000001e-01  2.0000000000000001e-01  2.0000000000000001e-01  2.0000000000000001e-01  2.0000000000000001e-01  2.0000000000000001e-01  2.0000000000000001e-01  2.0000000000000001e-01  2.0000000000000001e-01  2.0000000000000001e-01  2.0000000000000001e-01  2.0000000000000001e-01  2.0000000000000001e-01  2.0000000000000001e-01  2.0000000000000001e-01  2.0000000000000001e-01  2.0000000000000001e-01  2.0000000000000001e-01  2.0000000000000001e-01  2.0000000000000001e-01  2.0000000000000001e-01  2.0000000000000001e-01  2.0000000000000001e-01  2.0000000000000001e-01  2.0000000000000001e-01  2.0000000000000001e-01  2.0000000000000001e-01  2.0000000000000001e-01  2.0000000000000001e-01  2.0000000000000001e-01  2.0000000000000001e-01  2.0000000000000001e-01  2.0000000000000001e-01  2.0000000000000001e-01  2.0000000000000001e-01  2.0000000000000001e-01  2.0000000000000001e-01  2.0000000000000001e-01  2.0000000000000001e-01  2.0000000000000001e-01  2.0000000000000001e-01  2.0000000000000001e-01  2.0000000000000001e-01  2.0000000000000001e-01  2.0000000000000001e-01  2.0000000000000001e-01  2.0000000000000001e-01  2.0000000000000001e-01  2.0000000000000001e-01  2.0000000000000001e-01  2.0000000000000001e-01  2.0000000000000001e-01  2.0000000000000001e-01  2.0000000000000001e-01  2.0000000000000001e-01  2.0000000000000001e-01  2.0000000000000001e-01  2.0000000000000001e-01  2.0000000000000001e-01  2.0000000000000001e-01  2.0000000000000001e-01  2.0000000000000001e-01  2.0000000000000001e-01  2.0000000000000001e-01  2.0000000000000001e-01  2.0000000000000001e-01  2.0000000000000001e-01  2.0000000000000001e-01  2.0000000000000001e-01  2.0000000000000001e-01  2.0000000000000001e-01  2.0000000000000001e-01  2.0000000000000001e-01  2.0000000000000001e-01  2.0000000000000001e-01  2.0000000000000001e-01  2.0000000000000001e-01  2.0000000000000001e-01  2.0000000000000001e-01  2.0000000000000001e-01  2.0000000000000001e-01  2.0000000000000001e-01  2.0000000000000001e-01  2.0000000000000001e-01  2.0000000000000001e-01  2.0000000000000001e-01  2.0000000000000001e-01  2.0000000000000001e-01  2.0000000000000001e-01  2.0000000000000001e-01  2.0000000000000001e-01  2.0000000000000001e-01  2.0000000000000001e-01  2.0000000000000001e-01  2.0000000000000001e-01  2.0000000000000001e-01  2.0000000000000001e-01  2.0000000000000001e-01  2.0000000000000001e-01  2.0000000000000001e-01  2.0000000000000001e-01  2.0000000000000001e-01  2.0000000000000001e-01  2.0000000000000001e-01  2.0000000000000001e-01  2.0000000000000001e-01  2.0000000000000001e-01  2.0000000000000001e-01  2.0000000000000001e-01  2.0000000000000001e-01  2.0000000000000001e-01  2.0000000000000001e-01  2.0000000000000001e-01  2.0000000000000001e-01  2.0000000000000001e-01  2.0000000000000001e-01  2.0000000000000001e-01  2.0000000000000001e-01  2.0000000000000001e-01  2.0000000000000001e-01  2.0000000000000001e-01  2.0000000000000001e-01  2.0000000000000001e-01  2.0000000000000001e-01  2.0000000000000001e-01  2.0000000000000001e-01  2.0000000000000001e-01  2.0000000000000001e-01  2.0000000000000001e-01  2.0000000000000001e-01  2.0000000000000001e-01  2.0000000000000001e-01  2.0000000000000001e-01  2.0000000000000001e-01  2.0000000000000001e-01  2.0000000000000001e-01  2.0000000000000001e-01  2.0000000000000001e-01  2.0000000000000001e-01  2.0000000000000001e-01  2.0000000000000001e-01  2.0000000000000001e-01  2.0000000000000001e-01  2.0000000000000001e-01  2.0000000000000001e-01  2.0000000000000001e-01  2.0000000000000001e-01  2.0000000000000001e-01  2.0000000000000001e-01  2.0000000000000001e-01  2.0000000000000001e-01  2.0000000000000001e-01  2.0000000000000001e-01  2.0000000000000001e-01  2.0000000000000001e-01  2.0000000000000001e-01  2.0000000000000001e-01  2.0000000000000001e-01  2.0000000000000001e-01  2.0000000000000001e-01  2.0000000000000001e-01  2.0000000000000001e-01  2.0000000000000001e-01  2.0000000000000001e-01  2.0000000000000001e-01  2.0000000000000001e-01  2.0000000000000001e-01  2.0000000000000001e-01  2.0000000000000001e-01  2.0000000000000001e-01  2.0000000000000001e-01  2.0000000000000001e-01  2.0000000000000001e-01  2.0000000000000001e-01  2.0000000000000001e-01  2.0000000000000001e-01  2.0000000000000001e-01  2.0000000000000001e-01  2.0000000000000001e-01  2.0000000000000001e-01  2.0000000000000001e-01  2.0000000000000001e-01  2.0000000000000001e-01  2.0000000000000001e-01  2.0000000000000001e-01  2.0000000000000001e-01  2.0000000000000001e-01  2.0000000000000001e-01  2.0000000000000001e-01  2.0000000000000001e-01  2.0000000000000001e-01  2.0000000000000001e-01  2.0000000000000001e-01  2.0000000000000001e-01  2.0000000000000001e-01  2.0000000000000001e-01  2.0000000000000001e-01  2.0000000000000001e-01  2.0000000000000001e-01  2.0000000000000001e-01  2.0000000000000001e-01  2.0000000000000001e-01  2.0000000000000001e-01  2.0000000000000001e-01  2.0000000000000001e-01  2.0000000000000001e-01  2.0000000000000001e-01  2.0000000000000001e-01  2.0000000000000001e-01  2.0000000000000001e-01  2.0000000000000001e-01  2.0000000000000001e-01  2.0000000000000001e-01  2.0000000000000001e-01  2.0000000000000001e-01  2.0000000000000001e-01  2.0000000000000001e-01  2.0000000000000001e-01  2.0000000000000001e-01  2.0000000000000001e-01  2.0000000000000001e-01  2.0000000000000001e-01  2.0000000000000001e-01  2.0000000000000001e-01  2.0000000000000001e-01  2.0000000000000001e-01  2.0000000000000001e-01  2.0000000000000001e-01  2.0000000000000001e-01  2.0000000000000001e-01  2.0000000000000001e-01  2.0000000000000001e-01  2.0000000000000001e-01  2.0000000000000001e-01  2.0000000000000001e-01  2.0000000000000001e-01  2.0000000000000001e-01  2.0000000000000001e-01  2.0000000000000001e-01  2.0000000000000001e-01  2.0000000000000001e-01  2.0000000000000001e-01  2.0000000000000001e-01  2.0000000000000001e-01  2.0000000000000001e-01  2.0000000000000001e-01  2.0000000000000001e-01  2.0000000000000001e-01  2.0000000000000001e-01  2.0000000000000001e-01  2.0000000000000001e-01  2.0000000000000001e-01  2.0000000000000001e-01  2.0000000000000001e-01  2.0000000000000001e-01  2.0000000000000001e-01  2.0000000000000001e-01  2.0000000000000001e-01  2.0000000000000001e-01  2.0000000000000001e-01  2.0000000000000001e-01  2.0000000000000001e-01  2.0000000000000001e-01  2.0000000000000001e-01  2.0000000000000001e-01  2.0000000000000001e-01  2.0000000000000001e-01  2.0000000000000001e-01  2.0000000000000001e-01  2.0000000000000001e-01  2.0000000000000001e-01  2.0000000000000001e-01  2.0000000000000001e-01  2.0000000000000001e-01  2.0000000000000001e-01  2.0000000000000001e-01  2.0000000000000001e-01  2.0000000000000001e-01  2.0000000000000001e-01  2.0000000000000001e-01  2.0000000000000001e-01  2.0000000000000001e-01  2.0000000000000001e-01  2.0000000000000001e-01  2.0000000000000001e-01  2.0000000000000001e-01  2.0000000000000001e-01  2.0000000000000001e-01  2.0000000000000001e-01  2.0000000000000001e-01  2.0000000000000001e-01  2.0000000000000001e-01  2.0000000000000001e-01  2.0000000000000001e-01  2.0000000000000001e-01  2.0000000000000001e-01  2.0000000000000001e-01  2.0000000000000001e-01  2.0000000000000001e-01  2.0000000000000001e-01  2.0000000000000001e-01  2.0000000000000001e-01  2.0000000000000001e-01  2.0000000000000001e-01  2.0000000000000001e-01  2.0000000000000001e-01  2.0000000000000001e-01  2.0000000000000001e-01  2.0000000000000001e-01  2.0000000000000001e-01  2.0000000000000001e-01  2.0000000000000001e-01  2.0000000000000001e-01  2.0000000000000001e-01  2.0000000000000001e-01  2.0000000000000001e-01  2.0000000000000001e-01  2.0000000000000001e-01  2.0000000000000001e-01  2.0000000000000001e-01  2.0000000000000001e-01  2.0000000000000001e-01  2.0000000000000001e-01  2.0000000000000001e-01  2.0000000000000001e-01  2.0000000000000001e-01  2.0000000000000001e-01  2.0000000000000001e-01  2.0000000000000001e-01  2.0000000000000001e-01  2.0000000000000001e-01  2.0000000000000001e-01  2.0000000000000001e-01  2.0000000000000001e-01  2.0000000000000001e-01  2.0000000000000001e-01  2.0000000000000001e-01  2.0000000000000001e-01  2.0000000000000001e-01  2.0000000000000001e-01  2.0000000000000001e-01  2.0000000000000001e-01  2.0000000000000001e-01  2.0000000000000001e-01  2.0000000000000001e-01  2.0000000000000001e-01  2.0000000000000001e-01  2.0000000000000001e-01  2.0000000000000001e-01  2.0000000000000001e-01  2.0000000000000001e-01  2.0000000000000001e-01  2.0000000000000001e-01  2.0000000000000001e-01  2.0000000000000001e-01  2.0000000000000001e-01  2.0000000000000001e-01  2.0000000000000001e-01  2.0000000000000001e-01  2.0000000000000001e-01  2.0000000000000001e-01  2.0000000000000001e-01  2.0000000000000001e-01  2.0000000000000001e-01  2.0000000000000001e-01  2.0000000000000001e-01  2.0000000000000001e-01  2.0000000000000001e-01  2.0000000000000001e-01  2.0000000000000001e-01  2.0000000000000001e-01  2.0000000000000001e-01  2.0000000000000001e-01  2.0000000000000001e-01  2.0000000000000001e-01  2.0000000000000001e-01  2.0000000000000001e-01  2.0000000000000001e-01  2.0000000000000001e-01  2.0000000000000001e-01  2.0000000000000001e-01  2.0000000000000001e-01  2.0000000000000001e-01  2.0000000000000001e-01  2.0000000000000001e-01  2.0000000000000001e-01  2.0000000000000001e-01  2.0000000000000001e-01  2.0000000000000001e-01  2.0000000000000001e-01  2.0000000000000001e-01  2.0000000000000001e-01  2.0000000000000001e-01  2.0000000000000001e-01  2.0000000000000001e-01  2.0000000000000001e-01  2.0000000000000001e-01  2.0000000000000001e-01  2.0000000000000001e-01  2.0000000000000001e-01  2.0000000000000001e-01  2.0000000000000001e-01  2.0000000000000001e-01  2.0000000000000001e-01  2.0000000000000001e-01  2.0000000000000001e-01  2.0000000000000001e-01  2.0000000000000001e-01  2.0000000000000001e-01  2.0000000000000001e-01  2.0000000000000001e-01  2.0000000000000001e-01  2.0000000000000001e-01  2.0000000000000001e-01  2.0000000000000001e-01  2.0000000000000001e-01  2.0000000000000001e-01  2.0000000000000001e-01  2.0000000000000001e-01  2.0000000000000001e-01  2.0000000000000001e-01  2.0000000000000001e-01  2.0000000000000001e-01  2.0000000000000001e-01  2.0000000000000001e-01  2.0000000000000001e-01  2.0000000000000001e-01  2.0000000000000001e-01  2.0000000000000001e-01  2.0000000000000001e-01  2.0000000000000001e-01  2.0000000000000001e-01  2.0000000000000001e-01  2.0000000000000001e-01  2.0000000000000001e-01  2.0000000000000001e-01  2.0000000000000001e-01  2.0000000000000001e-01  2.0000000000000001e-01  2.0000000000000001e-01  2.0000000000000001e-01  2.0000000000000001e-01  2.0000000000000001e-01  2.0000000000000001e-01  2.0000000000000001e-01  2.0000000000000001e-01  2.0000000000000001e-01  2.0000000000000001e-01  2.0000000000000001e-01  2.0000000000000001e-01  2.0000000000000001e-01  2.0000000000000001e-01  2.0000000000000001e-01  2.0000000000000001e-01  2.0000000000000001e-01  2.0000000000000001e-01  2.0000000000000001e-01  2.0000000000000001e-01  2.0000000000000001e-01  2.0000000000000001e-01  2.0000000000000001e-01  2.0000000000000001e-01  2.0000000000000001e-01  2.0000000000000001e-01  2.0000000000000001e-01  2.0000000000000001e-01  2.0000000000000001e-01  2.0000000000000001e-01  2.0000000000000001e-01  2.0000000000000001e-01  2.0000000000000001e-01  2.0000000000000001e-01  2.0000000000000001e-01  2.0000000000000001e-01  2.0000000000000001e-01  2.0000000000000001e-01  2.0000000000000001e-01  2.0000000000000001e-01  2.0000000000000001e-01  2.0000000000000001e-01  2.0000000000000001e-01  2.0000000000000001e-01  2.0000000000000001e-01  2.0000000000000001e-01  2.0000000000000001e-01  2.0000000000000001e-01  2.0000000000000001e-01  2.0000000000000001e-01  2.0000000000000001e-01  2.0000000000000001e-01  2.0000000000000001e-01  2.0000000000000001e-01  2.0000000000000001e-01  2.0000000000000001e-01  2.0000000000000001e-01  2.0000000000000001e-01  2.0000000000000001e-01  2.0000000000000001e-01  2.0000000000000001e-01  2.0000000000000001e-01  2.0000000000000001e-01  2.0000000000000001e-01  2.0000000000000001e-01  2.0000000000000001e-01  2.0000000000000001e-01  2.0000000000000001e-01  2.0000000000000001e-01  2.0000000000000001e-01  2.0000000000000001e-01  2.0000000000000001e-01  2.0000000000000001e-01  2.0000000000000001e-01  2.0000000000000001e-01  2.0000000000000001e-01  2.0000000000000001e-01  2.0000000000000001e-01  2.0000000000000001e-01  2.0000000000000001e-01  2.0000000000000001e-01  2.0000000000000001e-01  2.0000000000000001e-01  2.0000000000000001e-01  2.0000000000000001e-01  2.0000000000000001e-01  2.0000000000000001e-01  2.0000000000000001e-01  2.0000000000000001e-01  2.0000000000000001e-01  2.0000000000000001e-01  2.0000000000000001e-01  2.0000000000000001e-01  2.0000000000000001e-01  2.0000000000000001e-01  2.0000000000000001e-01  2.0000000000000001e-01  2.0000000000000001e-01  2.0000000000000001e-01  2.0000000000000001e-01  2.0000000000000001e-01  2.0000000000000001e-01  2.0000000000000001e-01  2.0000000000000001e-01  2.0000000000000001e-01  2.0000000000000001e-01  2.0000000000000001e-01  2.0000000000000001e-01  2.0000000000000001e-01  2.0000000000000001e-01  2.0000000000000001e-01  2.0000000000000001e-01  2.0000000000000001e-01  2.0000000000000001e-01  2.0000000000000001e-01  2.0000000000000001e-01  2.0000000000000001e-01  2.0000000000000001e-01  2.0000000000000001e-01  2.0000000000000001e-01  2.0000000000000001e-01  2.0000000000000001e-01  2.0000000000000001e-01  2.0000000000000001e-01  2.0000000000000001e-01  2.0000000000000001e-01  2.0000000000000001e-01  2.0000000000000001e-01  2.0000000000000001e-01  2.0000000000000001e-01  2.0000000000000001e-01  2.0000000000000001e-01  2.0000000000000001e-01  2.0000000000000001e-01  2.0000000000000001e-01  2.0000000000000001e-01  2.0000000000000001e-01  2.0000000000000001e-01  2.0000000000000001e-01  2.0000000000000001e-01  2.0000000000000001e-01  2.0000000000000001e-01  2.0000000000000001e-01  2.0000000000000001e-01  2.0000000000000001e-01  2.0000000000000001e-01  2.0000000000000001e-01  2.0000000000000001e-01  2.0000000000000001e-01  2.0000000000000001e-01  2.0000000000000001e-01  2.0000000000000001e-01  2.0000000000000001e-01  2.0000000000000001e-01  2.0000000000000001e-01  2.0000000000000001e-01  2.0000000000000001e-01  2.0000000000000001e-01  2.0000000000000001e-01  2.0000000000000001e-01  2.0000000000000001e-01  2.0000000000000001e-01  2.0000000000000001e-01  2.0000000000000001e-01  2.0000000000000001e-01  2.0000000000000001e-01  2.0000000000000001e-01  2.0000000000000001e-01  2.0000000000000001e-01  2.0000000000000001e-01  2.0000000000000001e-01  2.0000000000000001e-01  2.0000000000000001e-01  2.0000000000000001e-01  2.0000000000000001e-01  2.0000000000000001e-01  2.0000000000000001e-01  2.0000000000000001e-01  2.0000000000000001e-01  2.0000000000000001e-01  2.0000000000000001e-01  2.0000000000000001e-01  2.0000000000000001e-01  2.0000000000000001e-01  2.0000000000000001e-01  2.0000000000000001e-01  2.0000000000000001e-01  2.0000000000000001e-01  2.0000000000000001e-01  2.0000000000000001e-01  2.0000000000000001e-01  2.0000000000000001e-01  2.0000000000000001e-01  2.0000000000000001e-01  2.0000000000000001e-01  2.0000000000000001e-01  2.0000000000000001e-01  2.0000000000000001e-01  2.0000000000000001e-01  2.0000000000000001e-01  2.0000000000000001e-01  2.0000000000000001e-01  2.0000000000000001e-01  2.0000000000000001e-01  2.0000000000000001e-01  2.0000000000000001e-01  2.0000000000000001e-01  2.0000000000000001e-01  2.0000000000000001e-01  2.0000000000000001e-01  2.0000000000000001e-01  2.0000000000000001e-01  2.0000000000000001e-01  2.0000000000000001e-01  2.0000000000000001e-01  2.0000000000000001e-01  2.0000000000000001e-01  2.0000000000000001e-01  2.0000000000000001e-01  2.0000000000000001e-01  2.0000000000000001e-01  2.0000000000000001e-01  2.0000000000000001e-01  2.0000000000000001e-01  2.0000000000000001e-01  2.0000000000000001e-01  2.0000000000000001e-01  2.0000000000000001e-01  2.0000000000000001e-01  2.0000000000000001e-01  2.0000000000000001e-01  2.0000000000000001e-01  2.0000000000000001e-01  2.0000000000000001e-01  2.0000000000000001e-01  2.0000000000000001e-01  2.0000000000000001e-01  2.0000000000000001e-01  2.0000000000000001e-01  2.0000000000000001e-01  2.0000000000000001e-01  2.0000000000000001e-01  </DataArray> 
</PointData> 
</Piece>
</UnstructuredGrid>
</VTKFile>