<?xml version="1.0"?>
<VTKFile type="UnstructuredGrid"  version="0.1"  >
<UnstructuredGrid>
<Piece  NumberOfPoints="394" NumberOfCells="690">
<Points>
<DataArray  type="Float64"  NumberOfComponents="3"  format="ascii">18.99999999999849 2 0  18.74999999999811 2 0  18.87499999999887 1.71650635094611 0  18.62499999999849 1.71650635094611 0  18.49999999999773 2 0  18.74999999999925 1.433012701892219 0  18.37499999999811 1.71650635094611 0  18.49999999999887 1.433012701892219 0  18.24999999999849 1.433012701892219 0  18.24999999999736 2 0  18.12499999999773 1.71650635094611 0  17.99999999999698 2 0  18.62499999999962 1.149519052838329 0  18.37499999999925 1.149519052838329 0  18.5 0.8660254037844386 0  16.99999999999547 2 0  16.74999999999509 2 0  16.87499999999629 1.746520711162699 0  16.62499999999591 1.746520711162699 0  16.49999999999471 2 0  16.7499999999971 1.493041422325399 0  16.37499999999553 1.746520711162699 0  16.49999999999672 1.493041422325399 0  16.24999999999635 1.493041422325399 0  16.24999999999434 2 0  16.12499999999515 1.746520711162699 0  15.99999999999396 2 0  16.62499999999792 1.239562133488098 0  16.37499999999754 1.239562133488098 0  16.49999999999874 0.9860828446507974 0  12.99999999998939 2 0  12.74999999998901 2 0  12.87499999999136 1.74652071116254 0  12.62499999999098 1.74652071116254 0  12.49999999998862 2 0  12.74999999999334 1.49304142232508 0  12.3749999999906 1.74652071116254 0  12.49999999999295 1.49304142232508 0  12.24999999999257 1.49304142232508 0  12.24999999998824 2 0  12.12499999999022 1.74652071116254 0  11.99999999998786 2 0  12.62499999999531 1.239562133487619 0  12.37499999999493 1.239562133487619 0  12.49999999999728 0.9860828446501591 0  10.99999999998634 2 0  10.74999999998596 2 0  10.87439297711764 1.749732347235992 0  10.62439297711725 1.749732347235992 0  10.49999999998558 2 0  10.74878595424893 1.499464694471983 0  10.37439297711687 1.749732347235992 0  10.49878595424855 1.499464694471983 0  10.24878595424817 1.499464694471983 0  10.2499999999852 2 0  10.1243929771165 1.749732347235992 0  9.999999999984821 2 0  10.62317893138022 1.249197041707975 0  10.37317893137984 1.249197041707975 0  10.49757190851152 0.9989293889439668 0  14.99999999999243 2 0  14.74999999999205 2 0  14.87499999999383 1.74652071116262 0  14.62499999999345 1.74652071116262 0  14.49999999999167 2 0  14.74999999999522 1.493041422325239 0  14.37499999999307 1.74652071116262 0  14.49999999999484 1.493041422325239 0  14.24999999999446 1.493041422325239 0  14.24999999999129 2 0  14.12499999999268 1.74652071116262 0  13.99999999999091 2 0  14.62499999999661 1.239562133487858 0  14.37499999999624 1.239562133487858 0  14.49999999999801 0.9860828446504779 0  10.24702918641092 0.9928167955694513 0  10.12263620927924 1.24308444833346 0  9.996486464310319 0.986704202194936 0  9.998243232147571 1.493352101097468 0  9.872093487178645 1.236971854958944 0  9.873850255015896 1.743619753861476 0  16.99999999999999 0 0  17.24999999999999 0 0  17.1249999999998 0.2593847116342085 0  17.37499999999981 0.2593847116342085 0  17.49999999999999 0 0  17.24999999999962 0.518769423268417 0  17.62499999999981 0.2593847116342085 0  17.49999999999962 0.518769423268417 0  17.74999999999962 0.518769423268417 0  17.75 0 0  17.87499999999981 0.2593847116342085 0  18 0 0  17.37499999999944 0.7781541349026255 0  17.62499999999944 0.7781541349026255 0  17.49999999999925 1.037538846536834 0  14.99999999999999 0 0  15.24999999999999 0 0  15.12499999999929 0.2488402370542198 0  15.37499999999929 0.2488402370542198 0  15.49999999999999 0 0  15.24999999999858 0.4976804741084396 0  15.62499999999929 0.2488402370542198 0  15.49999999999858 0.4976804741084396 0  15.74999999999858 0.4976804741084396 0  15.74999999999999 0 0  15.87499999999929 0.2488402370542198 0  15.99999999999999 0 0  15.37499999999788 0.7465207111626594 0  15.62499999999788 0.7465207111626594 0  15.49999999999718 0.9953609482168791 0  12.99999999999999 0 0  13.24999999999999 0 0  13.12499999999898 0.2488402370541932 0  13.37499999999898 0.2488402370541932 0  13.49999999999999 0 0  13.24999999999796 0.4976804741083863 0  13.62499999999898 0.2488402370541932 0  13.49999999999796 0.4976804741083863 0  13.74999999999796 0.4976804741083863 0  13.74999999999999 0 0  13.87499999999898 0.2488402370541932 0  13.99999999999999 0 0  13.37499999999694 0.7465207111625796 0  13.62499999999694 0.7465207111625796 0  13.49999999999593 0.9953609482167727 0  10.99999999999998 0 0  11.24999999999998 0 0  11.12489882952011 0.2493755097330886 0  11.37489882952011 0.2493755097330886 0  11.49999999999998 0 0  11.24979765904023 0.4987510194661772 0  11.62489882952011 0.2493755097330886 0  11.49979765904023 0.4987510194661772 0  11.74979765904023 0.4987510194661772 0  11.74999999999998 0 0  11.87489882952011 0.2493755097330886 0  11.99999999999998 0 0  11.37469648856036 0.7481265291992658 0  11.62469648856036 0.7481265291992658 0  11.49959531808049 0.9975020389323543 0  12.24989882951808 0.9889376432207079 0  12.12489882951573 1.242416932058168 0  11.99979765903888 0.9917924417912567 0  11.99989882951337 1.495896220895628 0  11.87479765903653 1.245271730628717 0  11.74979765903418 1.498751019466177 0  11.87489882951102 1.749375509733089 0  11.74969648855969 0.9946472403618055 0  11.62469648855733 1.248126529199266 0  14.24999999999749 0.9884023705420516 0  14.12499999999572 1.241881659379432 0  13.99999999999697 0.9907218964336253 0  13.99999999999394 1.495360948216813 0  13.87499999999519 1.244201185271006 0  13.74999999999342 1.497680474108386 0  13.87499999999217 1.748840237054193 0  13.74999999999645 0.993041422325199 0  13.62499999999467 1.246520711162579 0  16.24999999999835 0.9884023705423178 0  16.12499999999715 1.241881659379618 0  15.99999999999796 0.9907218964338382 0  15.99999999999596 1.495360948216919 0  15.87499999999676 1.244201185271139 0  15.74999999999557 1.49768047410844 0  15.87499999999477 1.74884023705422 0  15.74999999999757 0.9930414223253587 0  15.62499999999637 1.246520711162659 0  18.24999999999981 0.9089037644725375 0  18.12499999999905 1.192397413526428 0  17.99999999999962 0.9517821251606363 0  17.9999999999983 1.475891062580318 0  17.87499999999887 1.235275774214527 0  17.74999999999812 1.518769423268417 0  17.87499999999755 1.759384711634209 0  17.74999999999944 0.9946604858487351 0  17.62499999999869 1.278154134902626 0  17.12499999999642 1.759384711634209 0  16.99999999999723 1.505905422796908 0  17.24999999999736 1.518769423268417 0  16.87499999999805 1.252426133959607 0  17.12499999999818 1.265290134431116 0  16.99999999999899 1.011810845593816 0  16.74999999999887 0.9989468451223066 0  17.37499999999831 1.278154134902626 0  17.24999999999912 1.024674846065325 0  15.12499999999362 1.74884023705422 0  14.99999999999501 1.495360948216839 0  15.2499999999948 1.49768047410844 0  14.87499999999641 1.241881659379459 0  15.1249999999962 1.244201185271059 0  14.99999999999759 0.9907218964336786 0  14.7499999999978 0.9884023705420782 0  15.37499999999599 1.246520711162659 0  15.24999999999739 0.9930414223252788 0  13.12499999999103 1.748840237054193 0  12.999999999993 1.495360948216733 0  13.24999999999266 1.497680474108386 0  12.87499999999497 1.241881659379273 0  13.12499999999463 1.244201185270926 0  12.99999999999661 0.9907218964334659 0  12.74999999999694 0.9884023705418125 0  13.37499999999429 1.246520711162579 0  13.24999999999627 0.9930414223251193 0  11.12489882950988 1.749375509733089 0  10.99929180664117 1.49910785696908 0  11.24979765903342 1.498751019466177 0  10.87368478377247 1.248840204205072 0  11.12419063616471 1.248483366702169 0  10.998583613296 0.9982157139381606 0  10.74807776090376 0.9985725514410637 0  11.37469648855695 1.248126529199266 0  11.24908946568825 0.9978588764352574 0  16.62499999999905 0.7395621334880981 0  16.87499999999918 0.7524261339596072 0  16.74999999999936 0.4930414223253987 0  16.99999999999949 0.5059054227969079 0  17.12499999999931 0.7652901344311164 0  16.87499999999968 0.2465207111626994 0  18.125 0.2165063509461096 0  17.99999999999981 0.4758910625803182 0  18.25 0.4330127018922193 0  18.12499999999981 0.6923974135264278 0  17.87499999999962 0.7352757742145266 0  18.375 0.649519052838329 0  16.12499999999968 0.2465207111626994 0  15.99999999999897 0.4953609482169191 0  16.24999999999936 0.4930414223253987 0  16.12499999999866 0.7418816593796185 0  15.87499999999827 0.7442011852711389 0  16.37499999999905 0.7395621334880981 0  14.6249999999985 0.7395621334878584 0  14.8749999999983 0.7418816593794588 0  14.749999999999 0.493041422325239 0  14.99999999999879 0.4953609482168393 0  15.12499999999809 0.7442011852710591 0  14.8749999999995 0.2465207111626195 0  14.1249999999995 0.2465207111626195 0  13.99999999999848 0.4953609482168126 0  14.249999999999 0.493041422325239 0  14.12499999999799 0.7418816593794322 0  13.87499999999747 0.7442011852710058 0  14.3749999999985 0.7395621334878584 0  12.62499999999796 0.7395621334876192 0  12.87499999999762 0.7418816593792728 0  12.74999999999864 0.4930414223250795 0  12.9999999999983 0.4953609482167329 0  13.12499999999728 0.744201185270926 0  12.87499999999931 0.2465207111625398 0  12.12499999999931 0.2465207111625398 0  11.99989882951943 0.4958962208956283 0  12.24999999999863 0.4930414223250795 0  12.12489882951876 0.7424169320581682 0  11.87479765903956 0.7452717306287169 0  12.37499999999796 0.7395621334876192 0  10.62317893138363 0.7491970417079751 0  10.87368478377588 0.7488402042050719 0  10.74878595425575 0.4994646944719834 0  10.99929180664799 0.4991078569690803 0  11.12419063616812 0.7484833667021689 0  10.87439297712787 0.2497323472359917 0  19.08563708345907 1.816579429209366 0  18.96063708345945 1.533085780155476 0  19.17127416691965 1.633158858418732 0  18.83563708345983 1.249592131101585 0  19.04627416692003 1.349665209364842 0  18.9212741669204 1.066171560310951 0  18.7106370834602 0.9660984820476949 0  19.25691125038023 1.449738287628098 0  19.13191125038061 1.166
[...]
<CellData  Scalars="f_20"> 
<DataArray  type="Float64"  Name="f_20"  format="ascii">1.0000000000000000e-03   1.0000000000000000e-03   1.0000000000000000e-03   1.0000000000000000e-03   1.0000000000000000e-03   1.0000000000000000e-03   1.0000000000000000e-03   1.0000000000000000e-03   1.0000000000000000e-03   1.0000000000000000e-03   1.0000000000000000e-03   1.0000000000000000e-03   1.0000000000000000e-03   1.2632225807969447e-03   1.2053500712790107e-03   1.0000000000000000e-03   1.0000000000000000e-03   2.7386239617321713e-03   1.0000000000000000e-03   2.3797767986742571e-03   1.3182609186287134e-03   2.6434250715491815e-03   2.6084911414812734e-03   2.4891503212097106e-03   1.0000000000000000e-03   1.6958691344056242e-03   1.0000000000000000e-03   1.0000000000000000e-03   1.8407709738405931e-03   1.5545326607072415e-03   1.5756474914173158e-03   1.0510578856241543e-03   1.0000000000000000e-03   1.0000000000000000e-03   1.0000000000000000e-03   1.0000000000000000e-03   1.0000000000000000e-03   1.0000000000000000e-03   1.0000000000000000e-03   1.0000000000000000e-03   1.0000000000000000e-03   1.0000000000000000e-03   1.0000000000000000e-03   1.0000000000000000e-03   1.0000000000000000e-03   1.0000000000000000e-03   1.0000000000000000e-03   1.0000000000000000e-03   7.9592548486885253e-02   1.0000000000000000e-03   1.3522525962465455e-02   1.0000000000000000e-03   1.4710310114398804e-02   1.3491162054720433e-03   4.8166185308873656e-02   1.0000000000000000e-03   1.0000000000000000e-03   1.0000000000000000e-03   1.0000000000000000e-03   1.0000000000000000e-03   1.0000000000000000e-03   1.0000000000000000e-03   1.0000000000000000e-03   1.0000000000000000e-03   1.0000000000000000e-03   1.0000000000000000e-03   1.0000000000000000e-03   1.0000000000000000e-03   1.0000000000000000e-03   1.0000000000000000e-03   1.0000000000000000e-03   1.0000000000000000e-03   1.0000000000000000e-03   1.0000000000000000e-03   1.0000000000000000e-03   1.0000000000000000e-03   1.0000000000000000e-03   1.0000000000000000e-03   1.0000000000000000e-03   1.0000000000000000e-03   5.0000000000000000e-01   5.0000000000000000e-01   4.3820808977612180e-01   1.0000000000000000e-03   1.0000000000000000e-03   4.9989632996227973e-01   5.0000000000000000e-01   1.0000000000000000e-03   1.0000000000000000e-03   1.0000000000000000e-03   1.0000000000000000e-03   1.0000000000000000e-03   2.0462722185368792e-03   9.5077646256691933e-02   2.2520381133821362e-03   1.0000000000000000e-03   8.1089096783935430e-02   7.8908476094777497e-02   1.0000000000000000e-03   2.5125612086563951e-03   1.5005113165577149e-03   2.5238612840822951e-03   1.0000000000000000e-03   1.0000000000000000e-03   1.0000000000000000e-03   1.0000000000000000e-03   2.3521583671695709e-01   1.0000000000000000e-03   2.3141168854755315e-01   1.0000000000000000e-03   1.0000000000000000e-03   1.0000000000000000e-03   1.0000000000000000e-03   1.0000000000000000e-03   2.0214244782216845e-01   8.7291230132757108e-02   1.5575252780054399e-01   1.0000000000000000e-03   1.0000000000000000e-03   1.0000000000000000e-03   1.0000000000000000e-03   1.0000000000000000e-03   1.0000000000000000e-03   3.5451494428160946e-01   3.6726982610186601e-02   3.7547181693126619e-01   4.7854270732991883e-01   1.0000000000000000e-03   1.0000000000000000e-03   1.0000000000000000e-03   1.3903508741553793e-02   1.0000000000000000e-03   1.8710238781878821e-01   4.3946367713485712e-01   1.0000000000000000e-03   1.0000000000000000e-03   1.0000000000000000e-03   1.0000000000000000e-03   1.0000000000000000e-03   2.6231905568137148e-01   1.0000000000000000e-03   2.9936425945366674e-01   4.9705529535485515e-01   1.0000000000000000e-03   4.9851869621084510e-01   4.6570440146398445e-01   1.0000000000000000e-03   1.0000000000000000e-03   1.0000000000000000e-03   5.0000000000000000e-01   4.5082000476311862e-01   1.0000000000000000e-03   1.0000000000000000e-03   1.0000000000000000e-03   1.0000000000000000e-03   1.0000000000000000e-03   1.0000000000000000e-03   1.0000000000000000e-03   1.0000000000000000e-03   1.0000000000000000e-03   1.0000000000000000e-03   1.0000000000000000e-03   1.0000000000000000e-03   1.0000000000000000e-03   1.0000000000000000e-03   1.0000000000000000e-03   1.0000000000000000e-03   1.0000000000000000e-03   1.0000000000000000e-03   1.0000000000000000e-03   1.0000000000000000e-03   1.0000000000000000e-03   1.0000000000000000e-03   1.0000000000000000e-03   1.0000000000000000e-03   1.0000000000000000e-03   1.0000000000000000e-03   1.0000000000000000e-03   1.0000000000000000e-03   1.0000000000000000e-03   1.0000000000000000e-03   1.0000000000000000e-03   1.0000000000000000e-03   1.0000000000000000e-03   1.0000000000000000e-03   1.0000000000000000e-03   1.2680592482184200e-03   1.5032460409869582e-03   1.6772708683566581e-03   1.0000000000000000e-03   1.7328084164396557e-03   2.4638977494282018e-03   1.5013203199819366e-03   2.0440709901208727e-03   2.3971923085823422e-03   2.6822401102887796e-03   1.7743148513234355e-03   1.0500446968023307e-03   1.0000000000000000e-03   1.0000000000000000e-03   1.2766066509602269e-03   1.0000000000000000e-03   1.0000000000000000e-03   1.3654511085896771e-03   1.5237394386250424e-03   1.0407044468643994e-03   1.0291248111103162e-03   1.3665395991548880e-03   1.3899636580280573e-03   2.5765409890564110e-03   1.2066515456849926e-03   1.5779949187030510e-03   1.2448284579835540e-03   1.2113514720721889e-03   1.0000000000000000e-03   1.0000000000000000e-03   1.0252136434034387e-03   1.0000000000000000e-03   2.0145572489793043e-03   2.7047487012456148e-03   2.2512124596202670e-03   7.6872526267553979e-03   1.7205756373067421e-03   1.0000000000000000e-03   1.0000000000000000e-03   1.0250693498290522e-03   1.4869388048413229e-03   1.0000000000000000e-03   1.0000000000000000e-03   1.0000000000000000e-03   1.0000000000000000e-03   1.0000000000000000e-03   1.1346603466901026e-03   1.4543371524451249e-03   1.0000000000000000e-03   1.0000000000000000e-03   1.0000000000000000e-03   1.0000000000000000e-03   1.0000000000000000e-03   1.2363217558384010e-01   1.0000000000000000e-03   8.6292227291557930e-02   1.0000000000000000e-03   1.4566907477654983e-01   7.6635315065219312e-02   1.0000000000000000e-03   1.0000000000000000e-03   1.0000000000000000e-03   1.0000000000000000e-03   1.0000000000000000e-03   1.0000000000000000e-03   1.0000000000000000e-03   1.0000000000000000e-03   1.0000000000000000e-03   1.0000000000000000e-03   1.0000000000000000e-03   1.0000000000000000e-03   1.0000000000000000e-03   1.0000000000000000e-03   1.0000000000000000e-03   1.0000000000000000e-03   1.0000000000000000e-03   1.0000000000000000e-03   1.0000000000000000e-03   1.0000000000000000e-03   1.0000000000000000e-03   1.0000000000000000e-03   1.0000000000000000e-03   1.0000000000000000e-03   1.0365171247285591e-03   1.0000000000000000e-03   1.0000000000000000e-03   1.0000000000000000e-03   4.4771609360854843e-02   1.0000000000000000e-03   1.0000000000000000e-03   5.0000000000000000e-01   1.0000000000000000e-03   1.0000000000000000e-03   1.0000000000000000e-03   2.3844690332901200e-01   1.0000000000000000e-03   1.0000000000000000e-03   1.0000000000000000e-03   1.0000000000000000e-03   1.0000000000000000e-03   1.0000000000000000e-03   1.0000000000000000e-03   1.0000000000000000e-03   1.0000000000000000e-03   1.0000000000000000e-03   1.0000000000000000e-03   1.1854528251025782e-01   1.0000000000000000e-03   1.0009993806837482e-03   1.0000000000000000e-03   1.0000000000000000e-03   1.3906835598817310e-03   3.0707718223371644e-03   3.8760017412045045e-03   3.1617095562630169e-03   1.3553809504785197e-03   1.7455687882154337e-02   4.1689429443218526e-03   2.4254771446767091e-03   6.0923121957558619e-02   1.0000000000000000e-03   1.2371330818429220e-03   1.0279196754684171e-03   1.2387396206297063e-03   1.0000000000000000e-03   1.4156642857206911e-03   1.2093581442332120e-03   1.0000000000000000e-03   1.6207237172225783e-01   1.0000000000000000e-03   1.0000000000000000e-03   1.0000000000000000e-03   1.0000000000000000e-03   1.0000000000000000e-03   1.0532899642598109e-03   1.0000000000000000e-03   1.0000000000000000e-03   1.0000000000000000e-03   1.0000000000000000e-03   1.0000000000000000e-03   1.0000000000000000e-03   1.0000000000000000e-03   1.0000000000000000e-03   1.0000000000000000e-03   1.4877670479041916e-01   1.0000000000000000e-03   3.3738147111304150e-02   1.0000000000000000e-03   1.0000000000000000e-03   1.0000000000000000e-03   1.0000000000000000e-03   1.0000000000000000e-03   1.0000000000000000e-03   9.4319323421561876e-03   2.5976863566282343e-01   1.0000000000000000e-03   1.0000000000000000e-03   1.0000000000000000e-03   1.0000000000000000e-03   1.0000000000000000e-03   4.3368990288250042e-01   1.0000000000000000e-03   1.0000000000000000e-03   1.0000000000000000e-03   1.0000000000000000e-03   1.0000000000000000e-03   1.0000000000000000e-03   1.0000000000000000e-03   1.0000000000000000e-03   1.0000000000000000e-03   1.0000000000000000e-03   1.0000000000000000e-03   1.0000000000000000e-03   1.0000000000000000e-03   1.0000000000000000e-03   1.0000000000000000e-03   1.0000000000000000e-03   1.0000000000000000e-03   1.0000000000000000e-03   1.0000000000000000e-03   1.0000000000000000e-03   1.0000000000000000e-03   1.0000000000000000e-03   1.0000000000000000e-03   1.0959990106341562e-01   1.0000000000000000e-03   4.9921685119488995e-01   1.3939895827801592e-02   1.0000000000000000e-03   1.0000000000000000e-03   1.0000000000000000e-03   1.0000000000000000e-03   5.0000000000000000e-01   7.2308774929973132e-02   2.7936631058697547e-01   1.0000000000000000e-03   1.4119882680879392e-01   1.0000000000000000e-03   1.0000000000000000e-03   4.3624181124689426e-01   1.0000000000000000e-03   1.0000000000000000e-03   1.0000000000000000e-03   1.0000000000000000e-03   1.0000000000000000e-03   1.0000000000000000e-03   1.0000000000000000e-03   1.0000000000000000e-03   5.0000000000000000e-01   1.0000000000000000e-03   1.0000000000000000e-03   5.0000000000000000e-01   1.0000000000000000e-03   1.9341414977075624e-01   5.0000000000000000e-01   3.6213547094990622e-01   5.0000000000000000e-01   2.0132917281258580e-01   1.9198341980972500e-01   2.7233255194659822e-01   3.4234705625250611e-01   2.8391919159607343e-01   1.0000000000000000e-03   1.0000000000000000e-03   1.0000000000000000e-03   1.0000000000000000e-03   1.0000000000000000e-03   1.0000000000000000e-03   1.0000000000000000e-03   1.0000000000000000e-03   1.0000000000000000e-03   1.0000000000000000e-03   1.0000000000000000e-03   1.0000000000000000e-03   1.0000000000000000e-03   1.0000000000000000e-03   1.0000000000000000e-03   1.0000000000000000e-03   1.0000000000000000e-03   1.0000000000000000e-03   1.0000000000000000e-03   1.0000000000000000e-03   1.0000000000000000e-03   1.0000000000000000e-03   1.0000000000000000e-03   1.0000000000000000e-03   1.0000000000000000e-03   1.0000000000000000e-03   1.0000000000000000e-03   1.0000000000000000e-03   1.4175780995544043e-01   1.0000000000000000e-03   1.0000000000000000e-03   1.0000000000000000e-03   1.0000000000000000e-03   1.0000000000000000e-03   1.0000000000000000e-03   1.0000000000000000e-03   1.0000000000000000e-03   1.0000000000000000e-03   1.0000000000000000e-03   1.0000000000000000e-03   1.0000000000000000e-03   1.0000000000000000e-03   1.0000000000000000e-03   1.0000000000000000e-03   1.0000000000000000e-03   1.0000000000000000e-03   1.0000000000000000e-03   1.0000000000000000e-03   1.0000000000000000e-03   1.0000000000000000e-03   1.0000000000000000e-03   1.6260765525372295e-03   2.1645156696654733e-02   1.0000000000000000e-03   1.0000000000000000e-03   2.0478279571070866e-03   6.9268885289314144e-02   1.7832068232405713e-03   3.8791212181968827e-02   1.0000000000000000e-03   9.6940877578244704e-03   1.4592839138310033e-03   2.0838250142532996e-03   1.0000000000000000e-03   1.0000000000000000e-03   1.0000000000000000e-03   1.0000000000000000e-03   1.3540984128979296e-03   1.0000000000000000e-03   1.6469354688012378e-03   2.0563082961525263e-03   2.6473616692341577e-03   2.8495664258280443e-03   1.9939635707573971e-03   1.0000000000000000e-03   2.2615383071165540e-03   1.0606001042988281e-03   2.5379663021402490e-03   1.0000000000000000e-03   1.0552962655497912e-03   1.5635297957600123e-03   1.5059887580437237e-03   1.0000000000000000e-03   1.0000000000000000e-03   1.0000000000000000e-03   1.0000000000000000e-03   1.0000000000000000e-03   1.0000000000000000e-03   5.0000000000000000e-01   5.0000000000000000e-01   1.0000000000000000e-03   1.7946117549061966e-01   1.0000000000000000e-03   1.0000000000000000e-03   1.5470399184719547e-01   1.3002478568114346e-03   1.0000000000000000e-03   1.0000000000000000e-03   1.0000000000000000e-03   1.0000000000000000e-03   1.0000000000000000e-03   1.3473585415584516e-01   1.0000000000000000e-03   1.0000000000000000e-03   1.0000000000000000e-03   1.0000000000000000e-03   2.4198390614293499e-03   2.8417437478441090e-03   1.0000000000000000e-03   2.4718653275170280e-03   1.0000000000000000e-03   2.3450403449817524e-03   1.0000000000000000e-03   1.4133989048705155e-03   1.0000000000000000e-03   1.0000000000000000e-03   1.0000000000000000e-03   1.0000000000000000e-03   1.1680663208281828e-03   1.3671668331456978e-03   1.6451143580485748e-03   1.0566960470104747e-03   1.0000000000000000e-03   1.0000000000000000e-03   1.0000000000000000e-03   3.8752255451193240e-01   1.8131688046685240e-01   2.4063536045846920e-01   1.5125939180430809e-01   1.7601956153676845e-01   1.0000000000000000e-03   5.7141843330093006e-02   1.0000000000000000e-03   2.6541616441365085e-01   1.0000000000000000e-03   1.2691548953473605e-01   1.8253054233751487e-01   3.9685043991762918e-02   1.0000000000000000e-03   4.8032285780552575e-01   1.0000000000000000e-03   3.3394719218510965e-01   3.5013418136718855e-01   4.8750058346661368e-01   1.0000000000000000e-03   1.7818287130909446e-01   1.0000000000000000e-03   4.6531329492019552e-01   1.9818056220218122e-02   3.4021559866996626e-01   1.0000000000000000e-03   1.0000000000000000e-03   1.0000000000000000e-03   1.0000000000000000e-03   1.0000000000000000e-03   1.0000000000000000e-03   1.0000000000000000e-03   1.0000000000000000e-03   1.0000000000000000e-03   1.0000000000000000e-03   1.0000000000000000e-03   1.0000000000000000e-03   1.0000000000000000e-03   1.0000000000000000e-03   5.2082036830646328e-02   1.0000000000000000e-03   1.0000000000000000e-03   4.8192001403863427e-01   4.9999248412552755e-01   1.0000000000000000e-03   1.0000000000000000e-03   1.0000000000000000e-03   1.0000000000000000e-03   1.0000000000000000e-03   1.0000000000000000e-03   1.0000000000000000e-03   1.0000000000000000e-03   1.0000000000000000e-03   1.0000000000000000e-03   1.0000000000000000e-03   1.0000000000000000e-03   1.0000000000000000e-03   1.0000000000000000e-03   1.0000000000000000e-03   1.0000000000000000e-03   1.0000000000000000e-03   1.0000000000000000e-03   1.0000000000000000e-03   1.0000000000000000e-03   1.0000000000000000e-03   1.0000000000000000e-03   1.0000000000000000e-03   1.0000000000000000e-03   1.0000000000000000e-03   1.0000000000000000e-03   1.0000000000000000e-03   1.0000000000000000e-03   1.0000000000000000e-03   1.0000000000000000e-03   1.0000000000000000e-03   1.0000000000000000e-03   1.0000000000000000e-03   1.1348308836223611e-03   1.0000000000000000e-03   1.0000000000000000e-03   1.0000000000000000e-03   1.0000000000000000e-03   1.0000000000000000e-03   1.0000000000000000e-03   1.0000000000000000e-03   1.0000000000000000e-03   1.0000000000000000e-03   1.0000000000000000e-03   1.0000000000000000e-03   1.0000000000000000e-03   1.0000000000000000e-03   1.0000000000000000e-03   1.0000000000000000e-03   1.0000000000000000e-03   1.0000000000000000e-03   1.0000000000000000e-03   1.0000000000000000e-03   1.0000000000000000e-03   1.5134780755957601e-03   1.0000000000000000e-03   1.0000000000000000e-03   1.4975605160534684e-03   2.5622550171650613e-03   1.0032759567081913e-03   1.7175086102998740e-03   1.0000000000000000e-03   1.0000000000000000e-03   1.0000000000000000e-03   1.0000000000000000e-03   1.0000000000000000e-03   1.0000000000000000e-03   1.0000000000000000e-03   1.0000000000000000e-03   1.0000000000000000e-03   1.0000000000000000e-03   1.0000000000000000e-03   1.0000000000000000e-03   1.0000000000000000e-03   1.0000000000000000e-03   1.0000000000000000e-03   1.0000000000000000e-03   1.0000000000000000e-03   1.0000000000000000e-03   1.0000000000000000e-03   1.0000000000000000e-03   1.0000000000000000e-03   1.0000000000000000e-03   1.0000000000000000e-03   1.0000000000000000e-03   1.0000000000000000e-03   1.0000000000000000e-03   1.0000000000000000e-03   1.0000000000000000e-03   1.0000000000000000e-03   1.0000000000000000e-03   1.0000000000000000e-03   1.0000000000000000e-03   1.0000000000000000e-03   1.0000000000000000e-03   1.0000000000000000e-03   1.0000000000000000e-03   1.0000000000000000e-03   1.0000000000000000e-03   1.0000000000000000e-03   1.0000000000000000e-03   1.0000000000000000e-03   1.0000000000000000e-03   1.0000000000000000e-03   1.0000000000000000e-03   1.0000000000000000e-03   1.0000000000000000e-03   1.0000000000000000e-03   1.0000000000000000e-03   1.0000000000000000e-03   1.0000000000000000e-03   1.0000000000000000e-03   1.0000000000000000e-03   </DataArray> 
</CellData> 
</Piece>
</UnstructuredGrid>
</VTKFile>