<?xml version="1.0"?>
<VTKFile type="UnstructuredGrid"  version="0.1"  >
<UnstructuredGrid>
<Piece  NumberOfPoints="392" NumberOfCells="686">
<Points>
<DataArray  type="Float64"  NumberOfComponents="3"  format="ascii">3.999999999999964 0 0  4.249999999999965 0 0  4.124999999998478 0.2534792888374535 0  4.374999999998479 0.2534792888374535 0  4.499999999999966 0 0  4.249999999996992 0.506958577674907 0  4.624999999998479 0.2534792888374535 0  4.499999999996993 0.506958577674907 0  4.749999999996994 0.506958577674907 0  4.749999999999967 0 0  4.874999999998481 0.2534792888374535 0  4.999999999999968 0 0  4.374999999995506 0.7604378665123606 0  4.624999999995506 0.7604378665123606 0  4.499999999994019 1.013917155349814 0  5.99999999999997 0 0  6.249999999999971 0 0  6.124999999997403 0.2534792888376092 0  6.374999999997405 0.2534792888376092 0  6.499999999999972 0 0  6.249999999994837 0.5069585776752185 0  6.624999999997405 0.2534792888376092 0  6.499999999994838 0.5069585776752185 0  6.749999999994839 0.5069585776752185 0  6.749999999999972 0 0  6.874999999997407 0.2534792888376092 0  6.999999999999973 0 0  6.374999999992271 0.7604378665128277 0  6.624999999992271 0.7604378665128277 0  6.499999999989704 1.013917155350437 0  1.999999999999982 0 0  2.24999999999998 0 0  2.12499999999946 0.2613818370536612 0  2.374999999999459 0.2613818370536612 0  2.499999999999979 0 0  2.249999999998939 0.5227636741073225 0  2.624999999999457 0.2613818370536612 0  2.499999999998937 0.5227636741073225 0  2.749999999998935 0.5227636741073225 0  2.749999999999977 0 0  2.874999999999455 0.2613818370536612 0  2.999999999999975 0 0  2.374999999998417 0.7841455111609837 0  2.624999999998415 0.7841455111609837 0  2.499999999997895 1.045527348214645 0  1.999999999998379 2 0  1.74999999999856 2 0  1.874999999998781 1.716506350946107 0  1.624999999998962 1.716506350946107 0  1.499999999998741 2 0  1.749999999999184 1.433012701892215 0  1.374999999999143 1.716506350946107 0  1.499999999999365 1.433012701892215 0  1.249999999999545 1.433012701892215 0  1.249999999998922 2 0  1.124999999999324 1.716506350946107 0  0.9999999999991025 2 0  1.624999999999586 1.149519052838322 0  1.374999999999767 1.149519052838322 0  1.499999999999988 0.8660254037844294 0  7.999999999999975 0 0  8.249999999999975 0 0  8.124690294450405 0.261918262795331 0  8.374690294450405 0.261918262795331 0  8.499999999999975 0 0  8.249380588900834 0.523836525590662 0  8.624690294450405 0.261918262795331 0  8.499380588900834 0.523836525590662 0  8.749380588900834 0.523836525590662 0  8.749999999999975 0 0  8.874690294450406 0.261918262795331 0  8.999999999999977 0 0  8.374070883351264 0.785754788385993 0  8.624070883351264 0.785754788385993 0  8.498761177801693 1.047673051181324 0  9.998243232147571 1.493352101097468 0  9.747700510046972 1.487239507722953 0  9.872093487178645 1.236971854958944 0  9.873850255015896 1.743619753861476 0  9.996486464310319 0.986704202194936 0  9.74594374220972 0.9805916088204207 0  9.621550765078046 1.230859261584429 0  9.495401020109121 0.9744790154459053 0  9.999999999984821 2 0  9.749999999984439 2 0  9.623850255015515 1.743619753861476 0  9.499999999984059 2 0  9.373850255015135 1.743619753861476 0  9.497700510046592 1.487239507722953 0  9.24770051004621 1.487239507722953 0  9.249999999983679 2 0  9.123850255014755 1.743619753861476 0  8.999999999983299 2 0  9.371550765077664 1.230859261584429 0  3.999999999993654 2 0  3.749999999994383 2 0  3.874999999994342 1.744460791439874 0  3.624999999995071 1.744460791439874 0  3.499999999995112 2 0  3.74999999999503 1.488921582879748 0  3.3749999999958 1.744460791439874 0  3.499999999995759 1.488921582879748 0  3.249999999996488 1.488921582879748 0  3.249999999995841 2 0  3.124999999996529 1.744460791439874 0  2.99999999999657 2 0  3.624999999995718 1.233382374319621 0  3.374999999996447 1.233382374319621 0  3.499999999996406 0.9778431657594949 0  5.99999999998782 2 0  5.74999999998855 2 0  5.87499999998929 1.751159762945844 0  5.62499999999002 1.751159762945844 0  5.499999999989278 2 0  5.749999999990761 1.502319525891687 0  5.374999999990749 1.751159762945844 0  5.49999999999149 1.502319525891687 0  5.24999999999222 1.502319525891687 0  5.249999999990007 2 0  5.124999999991478 1.751159762945844 0  4.999999999990736 2 0  5.624999999992232 1.253479288837531 0  5.37499999999296 1.253479288837531 0  5.499999999993702 1.004639051783375 0  7.999999999982053 2 0  7.749999999982765 2 0  7.874963130275843 1.744524651647608 0  7.624963130276555 1.744524651647608 0  7.499999999983477 2 0  7.749926260569634 1.489049303295215 0  7.374963130277267 1.744524651647608 0  7.499926260570346 1.489049303295215 0  7.249926260571058 1.489049303295215 0  7.24999999998419 2 0  7.12496313027798 1.744524651647608 0  6.999999999984902 2 0  7.624889390863425 1.233573954942823 0  7.374889390864137 1.233573954942823 0  7.499852521157216 0.9780986065904302 0  6.749963130281582 1.004962518160435 0  6.874963130284149 0.751483229322826 0  6.99992626057346 0.9960078809704336 0  6.999963130286717 0.4980039404852168 0  7.124926260576027 0.7425285921328244 0  7.249926260578595 0.4890493032952151 0  7.124963130289284 0.2445246516476076 0  7.249889390865338 0.9870532437804319 0  7.374889390867905 0.7335739549428226 0  4.74999999999394 1.011597629458204 0  4.874999999995428 0.7581183406207508 0  4.999999999993861 1.009278103566595 0  4.999999999996914 0.5046390517832973 0  5.124999999995348 0.755798814729141 0  5.249999999996835 0.5023195258916875 0  5.124999999998401 0.2511597629458437 0  5.249999999993781 1.006958577674985 0  5.374999999995268 0.7534792888375312 0  2.749999999997523 1.028606302600858 0  2.874999999998043 0.7672244655471963 0  2.999999999997151 1.01168525698707 0  2.999999999998563 0.505842628493535 0  3.124999999997671 0.7503034199334088 0  3.249999999998191 0.4889215828797475 0  3.124999999999083 0.2444607914398737 0  3.249999999996779 0.9947642113732824 0  3.374999999997298 0.7333823743196212 0  3.874999999999075 0.2444607914398737 0  3.999999999997589 0.4979400802773273 0  3.749999999998185 0.4889215828797475 0  4.124999999996103 0.7514193691147808 0  3.874999999996699 0.742400871717201 0  3.999999999995213 0.9958801605546546 0  4.249999999994616 1.004898657952234 0  3.624999999997295 0.7333823743196212 0  3.74999999999581 0.9868616631570748 0  5.874999999998403 0.2511597629458437 0  5.999999999995836 0.5046390517834529 0  5.749999999996836 0.5023195258916875 0  6.124999999993269 0.7581183406210621 0  5.874999999994269 0.7557988147292967 0  5.999999999991703 1.009278103566906 0  6.249999999990703 1.011597629458671 0  5.62499999999527 0.7534792888375312 0  5.749999999992703 1.00695857767514 0  7.874963130289285 0.2445246516476076 0  7.999653424739715 0.5064429144429385 0  7.749926260578595 0.4890493032952151 0  8.124343719190144 0.7683611772382695 0  7.874616555029025 0.7509675660905462 0  7.999306849479455 1.012885828885877 0  8.249034013640575 1.0302794400336 0  7.624889390867906 0.7335739549428226 0  7.749579685318335 0.9954922177381537 0  1.874999999999984 0.2165063509461073 0  1.999999999999462 0.4778881879997686 0  1.749999999999985 0.4330127018922147 0  2.12499999999894 0.7392700250534299 0  1.874999999999463 0.694394538945876 0  1.999999999998942 0.9557763759995372 0  2.249999999998418 1.000651862107091 0  1.624999999999986 0.649519052838322 0  1.749999999999465 0.9109008898919833 0  2.374999999998016 1.284145511160984 0  2.124999999998539 1.23927002505343 0  2.249999999998137 1.522763674107322 0  1.99999999999866 1.477888187999769 0  1.874999999999063 1.194394538945876 0  2.124999999998258 1.761381837053661 0  8.747921138378551 1.029374542247469 0  8.87323084392812 0.7674562794521382 0  8.997081098955407 1.011076033313615 0  8.998540549477692 0.5055380166568073 0  9.122390804504978 0.7491577705182837 0  9.24770051005455 0.4872395077229527 0  9.123850255027264 0.2436197538614763 0  9.246241059532263 0.99277752437976 0  9.371550765081835 0.7308592615844289 0  2.874999999996901 1.761381837053661 0  2.99999999999686 1.505842628493535 0  2.749999999997232 1.522763674107322 0  2.874999999997192 1.267224465547196 0  3.124999999996819 1.250303419933409 0  2.624999999997564 1.284145511160984 0  4.374999999993928 1.260437866512361 0  4.124999999994524 1.251419369114781 0  4.249999999993836 1.506958577674907 0  3.999999999994433 1.497940080277327 0  3.874999999995121 1.242400871717201 0  4.124999999993745 1.753479288837454 0  4.874999999991557 1.753479288837454 0  4.999999999992299 1.504639051783297 0  4.749999999992378 1.506958577674907 0  4.874999999993119 1.258118340620751 0  5.12499999999304 1.255798814729141 0  4.624999999993198 1.260437866512361 0  6.374999999989234 1.260437866512828 0  6.124999999990233 1.258118340621062 0  6.249999999988763 1.506958577675218 0  5.999999999989762 1.504639051783453 0  5.874999999991232 1.255798814729297 0  6.124999999988292 1.753479288837609 0  6.874999999986102 1.753479288837609 0  6.99996313027918 1.498003940485217 0  6.749999999987303 1.506958577675218 0  6.874963130280381 1.251483229322826 0  7.124926260572259 1.242528592132824 0  6.624999999988503 1.260437866512828 0  8.374070883346782 1.285754788385993 0  8.124343719185664 1.268361177238269 0  8.249380588891873 1.523836525590662 0  7.999653424730753 1.506442914442939 0  7.874616555024544 1.250967566090546 0  8.124690294436963 1.761918262795331 0  8.874690294437897 1.761918262795331 0  8.998540549469354 1.505538016656807 0  8.749380588892496 1.523836525590662 0  8.873230843923952 1.267456279452138 0  9.122390804500808 1.249157770518284 0  8.624070883347095 1.285754788385993 0  1.289362916539685 0.9660984820476399 0  1.164362916539464 1.249592131101533 0  1.078725833079383 1.066171560310851 0  1.039362916539243 1.533085780155425 0  0.9537258330791614 1.349665209364743 0  0.82872583307894 1.633158858418636 0  0.9143629165390212 1.816579429209318 0  0.8680887496190801 1.166244638574061 0  0.7430887496188587 1.449738287627954 0  0.
[...]
<CellData  Scalars="f_20"> 
<DataArray  type="Float64"  Name="f_20"  format="ascii">5.0000000000000000e-01   5.0000000000000000e-01   4.3016648249691625e-01   5.0000000000000000e-01   5.0000000000000000e-01   4.8723060480237401e-01   4.4610428260819368e-01   5.0000000000000000e-01   3.9218689621594288e-01   5.0000000000000000e-01   3.5744834334061654e-01   5.0000000000000000e-01   5.0000000000000000e-01   5.0000000000000000e-01   5.0000000000000000e-01   5.0000000000000000e-01   1.8613328662170203e-01   1.8957058474604979e-01   1.4134560664937421e-01   1.8544401309297467e-01   1.3993576979711175e-01   1.3771261399553697e-01   9.3496427828670486e-02   1.3382351266485421e-01   9.8534522567333194e-02   9.1088665839972632e-02   5.7892100192344802e-02   8.7376700551553541e-02   1.3114964333443535e-01   1.3757340578935706e-01   9.1921109950107563e-02   1.2843300045628148e-01   5.0000000000000000e-01   5.0000000000000000e-01   5.0000000000000000e-01   5.0000000000000000e-01   5.0000000000000000e-01   5.0000000000000000e-01   5.0000000000000000e-01   5.0000000000000000e-01   5.0000000000000000e-01   5.0000000000000000e-01   5.0000000000000000e-01   5.0000000000000000e-01   5.0000000000000000e-01   5.0000000000000000e-01   5.0000000000000000e-01   5.0000000000000000e-01   5.0000000000000000e-01   5.0000000000000000e-01   5.0000000000000000e-01   5.0000000000000000e-01   5.0000000000000000e-01   5.0000000000000000e-01   5.0000000000000000e-01   5.0000000000000000e-01   5.0000000000000000e-01   5.0000000000000000e-01   5.0000000000000000e-01   5.0000000000000000e-01   5.0000000000000000e-01   5.0000000000000000e-01   5.0000000000000000e-01   5.0000000000000000e-01   1.0000000000000000e-03   1.0000000000000000e-03   1.0000000000000000e-03   1.0000000000000000e-03   1.0000000000000000e-03   1.0000000000000000e-03   1.0000000000000000e-03   1.0000000000000000e-03   1.0000000000000000e-03   1.0000000000000000e-03   1.0000000000000000e-03   1.0000000000000000e-03   1.0000000000000000e-03   1.0000000000000000e-03   1.0000000000000000e-03   1.0000000000000000e-03   1.0000000000000000e-03   1.0000000000000000e-03   4.9843320702247884e-01   5.0000000000000000e-01   5.0000000000000000e-01   1.0000000000000000e-03   1.0000000000000000e-03   1.0000000000000000e-03   1.0000000000000000e-03   1.0000000000000000e-03   1.0000000000000000e-03   1.0000000000000000e-03   1.0000000000000000e-03   1.0000000000000000e-03   1.0000000000000000e-03   1.0000000000000000e-03   1.0000000000000000e-03   1.0000000000000000e-03   1.0000000000000000e-03   5.0000000000000000e-01   1.0000000000000000e-03   5.0000000000000000e-01   5.0000000000000000e-01   5.0000000000000000e-01   5.0000000000000000e-01   5.0000000000000000e-01   5.0000000000000000e-01   5.0000000000000000e-01   5.0000000000000000e-01   5.0000000000000000e-01   5.0000000000000000e-01   5.0000000000000000e-01   5.0000000000000000e-01   5.0000000000000000e-01   5.0000000000000000e-01   5.0000000000000000e-01   5.0000000000000000e-01   5.0000000000000000e-01   5.0000000000000000e-01   5.0000000000000000e-01   5.0000000000000000e-01   5.0000000000000000e-01   5.0000000000000000e-01   5.0000000000000000e-01   5.0000000000000000e-01   5.0000000000000000e-01   5.0000000000000000e-01   5.0000000000000000e-01   5.0000000000000000e-01   5.0000000000000000e-01   5.0000000000000000e-01   5.0000000000000000e-01   5.0000000000000000e-01   5.0000000000000000e-01   1.0000000000000000e-03   1.0000000000000000e-03   1.0000000000000000e-03   1.0302715631912830e-02   1.0000000000000000e-03   2.7339447304455011e-01   5.0000000000000000e-01   5.0000000000000000e-01   7.8366060704021263e-03   3.8959487850831964e-01   4.1567419567537078e-01   5.0000000000000000e-01   5.0000000000000000e-01   5.0000000000000000e-01   5.0000000000000000e-01   5.0000000000000000e-01   1.2268731910771619e-01   1.0529389305492100e-01   9.7321794319664895e-02   1.2066201144599129e-01   6.2690466524871258e-02   5.2741340849943766e-02   2.4772906288009901e-02   5.7746994002417604e-02   5.8113867625735824e-02   4.0887910655356983e-02   4.2582462647952055e-02   1.6298796388647757e-02   4.5716546841459989e-02   2.3580039957320893e-02   1.4764401835395378e-02   1.2073375090683880e-02   5.0000000000000000e-01   5.0000000000000000e-01   5.0000000000000000e-01   5.0000000000000000e-01   3.7167121559910582e-01   4.0697776364037241e-01   2.9368376519126443e-01   4.7363889291866351e-01   3.9246672119676251e-01   5.0000000000000000e-01   4.1767024093650318e-01   3.3531352152781158e-01   5.0000000000000000e-01   3.3573627418368596e-01   2.9653909404552142e-01   5.0000000000000000e-01   5.0000000000000000e-01   5.0000000000000000e-01   5.0000000000000000e-01   5.0000000000000000e-01   5.0000000000000000e-01   5.0000000000000000e-01   5.0000000000000000e-01   5.0000000000000000e-01   5.0000000000000000e-01   5.0000000000000000e-01   5.0000000000000000e-01   5.0000000000000000e-01   5.0000000000000000e-01   5.0000000000000000e-01   5.0000000000000000e-01   5.0000000000000000e-01   5.0000000000000000e-01   5.0000000000000000e-01   5.0000000000000000e-01   5.0000000000000000e-01   5.0000000000000000e-01   5.0000000000000000e-01   5.0000000000000000e-01   5.0000000000000000e-01   5.0000000000000000e-01   5.0000000000000000e-01   5.0000000000000000e-01   5.0000000000000000e-01   5.0000000000000000e-01   5.0000000000000000e-01   5.0000000000000000e-01   5.0000000000000000e-01   2.3328148114271435e-01   2.3802603887818269e-01   1.8378850451889087e-01   2.3997817458910362e-01   1.7134305455103940e-01   2.0448520507941700e-01   1.8943936933690594e-01   2.1284453281112356e-01   1.6797295763922540e-01   1.5319739593677467e-01   1.3236848856255756e-01   1.6834029302335821e-01   2.4847583860201211e-01   2.3634883781250063e-01   2.1417678696503001e-01   3.2060337995992860e-01   1.0000000000000000e-03   1.0000000000000000e-03   1.0000000000000000e-03   1.0000000000000000e-03   1.0000000000000000e-03   1.0000000000000000e-03   1.0000000000000000e-03   1.0000000000000000e-03   1.0000000000000000e-03   1.0000000000000000e-03   1.0000000000000000e-03   1.0000000000000000e-03   1.0000000000000000e-03   1.0000000000000000e-03   1.0000000000000000e-03   1.0000000000000000e-03   5.0000000000000000e-01   5.0000000000000000e-01   5.0000000000000000e-01   5.0000000000000000e-01   5.0000000000000000e-01   5.0000000000000000e-01   5.0000000000000000e-01   5.0000000000000000e-01   5.0000000000000000e-01   5.0000000000000000e-01   5.0000000000000000e-01   5.0000000000000000e-01   5.0000000000000000e-01   5.0000000000000000e-01   5.0000000000000000e-01   5.0000000000000000e-01   5.0000000000000000e-01   5.0000000000000000e-01   5.0000000000000000e-01   5.0000000000000000e-01   5.0000000000000000e-01   5.0000000000000000e-01   5.0000000000000000e-01   5.0000000000000000e-01   5.0000000000000000e-01   5.0000000000000000e-01   5.0000000000000000e-01   5.0000000000000000e-01   5.0000000000000000e-01   5.0000000000000000e-01   5.0000000000000000e-01   5.0000000000000000e-01   1.0000000000000000e-03   1.0000000000000000e-03   1.0000000000000000e-03   1.0000000000000000e-03   1.0000000000000000e-03   1.0000000000000000e-03   1.0000000000000000e-03   1.0000000000000000e-03   1.0000000000000000e-03   1.0000000000000000e-03   1.0000000000000000e-03   1.0000000000000000e-03   1.0000000000000000e-03   1.0000000000000000e-03   1.0000000000000000e-03   1.0000000000000000e-03   5.0000000000000000e-01   5.0000000000000000e-01   5.0000000000000000e-01   5.0000000000000000e-01   5.0000000000000000e-01   5.0000000000000000e-01   5.0000000000000000e-01   5.0000000000000000e-01   5.0000000000000000e-01   5.0000000000000000e-01   5.0000000000000000e-01   5.0000000000000000e-01   5.0000000000000000e-01   5.0000000000000000e-01   5.0000000000000000e-01   5.0000000000000000e-01   5.0000000000000000e-01   5.0000000000000000e-01   5.0000000000000000e-01   5.0000000000000000e-01   5.0000000000000000e-01   5.0000000000000000e-01   5.0000000000000000e-01   5.0000000000000000e-01   5.0000000000000000e-01   5.0000000000000000e-01   5.0000000000000000e-01   5.0000000000000000e-01   5.0000000000000000e-01   5.0000000000000000e-01   5.0000000000000000e-01   5.0000000000000000e-01   5.0000000000000000e-01   5.0000000000000000e-01   5.0000000000000000e-01   5.0000000000000000e-01   5.0000000000000000e-01   5.0000000000000000e-01   5.0000000000000000e-01   5.0000000000000000e-01   5.0000000000000000e-01   5.0000000000000000e-01   5.0000000000000000e-01   5.0000000000000000e-01   5.0000000000000000e-01   5.0000000000000000e-01   5.0000000000000000e-01   5.0000000000000000e-01   5.0000000000000000e-01   5.0000000000000000e-01   5.0000000000000000e-01   5.0000000000000000e-01   5.0000000000000000e-01   5.0000000000000000e-01   5.0000000000000000e-01   5.0000000000000000e-01   5.0000000000000000e-01   5.0000000000000000e-01   5.0000000000000000e-01   5.0000000000000000e-01   5.0000000000000000e-01   5.0000000000000000e-01   5.0000000000000000e-01   5.0000000000000000e-01   5.0000000000000000e-01   2.5112537795662287e-01   5.0000000000000000e-01   5.0000000000000000e-01   5.0000000000000000e-01   5.0000000000000000e-01   5.0000000000000000e-01   5.0000000000000000e-01   5.0000000000000000e-01   5.0000000000000000e-01   5.0000000000000000e-01   3.3445042150420984e-01   5.0000000000000000e-01   5.0000000000000000e-01   1.6092258517562918e-01   1.2030846460479992e-01   5.0000000000000000e-01   5.0000000000000000e-01   5.0000000000000000e-01   5.0000000000000000e-01   5.0000000000000000e-01   5.0000000000000000e-01   5.0000000000000000e-01   5.0000000000000000e-01   5.0000000000000000e-01   1.0000000000000000e-03   1.0000000000000000e-03   5.0000000000000000e-01   5.0000000000000000e-01   5.0000000000000000e-01   5.0000000000000000e-01   3.0657227438560430e-01   1.0000000000000000e-03   1.0000000000000000e-03   1.0000000000000000e-03   4.9403484856463598e-01   5.0000000000000000e-01   5.0000000000000000e-01   5.0000000000000000e-01   1.0000000000000000e-03   5.0000000000000000e-01   5.0000000000000000e-01   5.0000000000000000e-01   5.0000000000000000e-01   5.0000000000000000e-01   5.0000000000000000e-01   5.0000000000000000e-01   5.0000000000000000e-01   5.0000000000000000e-01   5.0000000000000000e-01   5.0000000000000000e-01   5.0000000000000000e-01   5.0000000000000000e-01   5.0000000000000000e-01   5.0000000000000000e-01   5.0000000000000000e-01   5.0000000000000000e-01   5.0000000000000000e-01   5.0000000000000000e-01   5.0000000000000000e-01   5.0000000000000000e-01   5.0000000000000000e-01   5.0000000000000000e-01   5.0000000000000000e-01   1.5924922450403483e-02   5.6256150518324494e-03   1.0000000000000000e-03   4.7642768772645089e-03   1.2151035132551317e-03   2.1444963114433950e-03   1.4492566433206878e-03   1.1781834539570169e-03   1.0000000000000000e-03   1.0000000000000000e-03   1.0000000000000000e-03   1.4045984185014487e-03   1.0000000000000000e-03   1.0000000000000000e-03   1.0000000000000000e-03   1.0000000000000000e-03   3.1973281457483133e-01   4.4248847962669818e-01   3.1554948784436460e-01   3.5363422209750817e-01   3.3802446833126515e-01   3.4283654114710377e-01   2.8740381936338438e-01   3.1230582960645659e-01   2.7943989490157894e-01   2.8241555549782654e-01   2.3134276581436741e-01   2.8834197621547186e-01   2.8805109376138699e-01   2.8682062044784268e-01   2.4923017536608666e-01   2.8313300149457954e-01   5.0000000000000000e-01   5.0000000000000000e-01   5.0000000000000000e-01   5.0000000000000000e-01   5.0000000000000000e-01   5.0000000000000000e-01   5.0000000000000000e-01   5.0000000000000000e-01   5.0000000000000000e-01   5.0000000000000000e-01   5.0000000000000000e-01   5.0000000000000000e-01   5.0000000000000000e-01   5.0000000000000000e-01   5.0000000000000000e-01   5.0000000000000000e-01   1.0000000000000000e-03   1.0000000000000000e-03   1.0000000000000000e-03   1.0000000000000000e-03   1.0000000000000000e-03   1.0000000000000000e-03   1.0000000000000000e-03   1.0000000000000000e-03   1.0000000000000000e-03   1.0000000000000000e-03   1.0000000000000000e-03   1.0000000000000000e-03   1.0000000000000000e-03   1.0000000000000000e-03   1.0000000000000000e-03   1.0000000000000000e-03   1.0000000000000000e-03   1.0000000000000000e-03   1.0000000000000000e-03   1.0000000000000000e-03   1.0000000000000000e-03   1.0000000000000000e-03   4.9766225181808998e-01   5.0000000000000000e-01   1.0000000000000000e-03   1.0000000000000000e-03   1.0000000000000000e-03   1.0000000000000000e-03   1.0000000000000000e-03   1.0000000000000000e-03   1.0000000000000000e-03   1.0000000000000000e-03   1.0000000000000000e-03   1.0000000000000000e-03   1.0000000000000000e-03   1.0000000000000000e-03   5.0000000000000000e-01   5.0000000000000000e-01   5.0000000000000000e-01   5.0000000000000000e-01   5.0000000000000000e-01   5.0000000000000000e-01   5.0000000000000000e-01   5.0000000000000000e-01   5.0000000000000000e-01   5.0000000000000000e-01   5.0000000000000000e-01   5.0000000000000000e-01   5.0000000000000000e-01   5.0000000000000000e-01   5.0000000000000000e-01   5.0000000000000000e-01   5.0000000000000000e-01   5.0000000000000000e-01   5.0000000000000000e-01   5.0000000000000000e-01   5.0000000000000000e-01   5.0000000000000000e-01   5.0000000000000000e-01   5.0000000000000000e-01   5.0000000000000000e-01   5.0000000000000000e-01   5.0000000000000000e-01   5.0000000000000000e-01   5.0000000000000000e-01   5.0000000000000000e-01   5.0000000000000000e-01   5.0000000000000000e-01   5.0000000000000000e-01   5.0000000000000000e-01   5.0000000000000000e-01   5.0000000000000000e-01   5.0000000000000000e-01   5.0000000000000000e-01   5.0000000000000000e-01   5.0000000000000000e-01   5.0000000000000000e-01   5.0000000000000000e-01   5.0000000000000000e-01   5.0000000000000000e-01   5.0000000000000000e-01   5.0000000000000000e-01   5.0000000000000000e-01   5.0000000000000000e-01   5.0000000000000000e-01   5.0000000000000000e-01   5.0000000000000000e-01   5.0000000000000000e-01   5.0000000000000000e-01   5.0000000000000000e-01   5.0000000000000000e-01   5.0000000000000000e-01   5.0000000000000000e-01   5.0000000000000000e-01   5.0000000000000000e-01   5.0000000000000000e-01   5.0000000000000000e-01   5.0000000000000000e-01   5.0000000000000000e-01   5.0000000000000000e-01   5.0000000000000000e-01   5.0000000000000000e-01   5.0000000000000000e-01   5.0000000000000000e-01   5.0000000000000000e-01   5.0000000000000000e-01   5.0000000000000000e-01   5.0000000000000000e-01   5.0000000000000000e-01   5.0000000000000000e-01   5.0000000000000000e-01   5.0000000000000000e-01   5.0000000000000000e-01   5.0000000000000000e-01   5.0000000000000000e-01   5.0000000000000000e-01   5.0000000000000000e-01   5.0000000000000000e-01   5.0000000000000000e-01   5.0000000000000000e-01   5.0000000000000000e-01   5.0000000000000000e-01   5.0000000000000000e-01   5.0000000000000000e-01   5.0000000000000000e-01   5.0000000000000000e-01   5.0000000000000000e-01   5.0000000000000000e-01   5.0000000000000000e-01   5.0000000000000000e-01   5.0000000000000000e-01   5.0000000000000000e-01   5.0000000000000000e-01   5.0000000000000000e-01   5.0000000000000000e-01   5.0000000000000000e-01   5.0000000000000000e-01   5.0000000000000000e-01   5.0000000000000000e-01   5.0000000000000000e-01   5.0000000000000000e-01   5.0000000000000000e-01   5.0000000000000000e-01   5.0000000000000000e-01   5.0000000000000000e-01   5.0000000000000000e-01   5.0000000000000000e-01   5.0000000000000000e-01   5.0000000000000000e-01   5.0000000000000000e-01   5.0000000000000000e-01   5.0000000000000000e-01   5.0000000000000000e-01   5.0000000000000000e-01   5.0000000000000000e-01   5.0000000000000000e-01   5.0000000000000000e-01   5.0000000000000000e-01   5.0000000000000000e-01   5.0000000000000000e-01   5.0000000000000000e-01   5.0000000000000000e-01   5.0000000000000000e-01   5.0000000000000000e-01   5.0000000000000000e-01   5.0000000000000000e-01   5.0000000000000000e-01   5.0000000000000000e-01   5.0000000000000000e-01   5.0000000000000000e-01   5.0000000000000000e-01   5.0000000000000000e-01   5.0000000000000000e-01   5.0000000000000000e-01   5.0000000000000000e-01   5.0000000000000000e-01   5.0000000000000000e-01   5.0000000000000000e-01   5.0000000000000000e-01   5.0000000000000000e-01   5.0000000000000000e-01   5.0000000000000000e-01   5.0000000000000000e-01   5.0000000000000000e-01   5.0000000000000000e-01   5.0000000000000000e-01   5.0000000000000000e-01   5.0000000000000000e-01   5.0000000000000000e-01   5.0000000000000000e-01   5.0000000000000000e-01   5.0000000000000000e-01   5.0000000000000000e-01   5.0000000000000000e-01   5.0000000000000000e-01   5.0000000000000000e-01   5.0000000000000000e-01   5.0000000000000000e-01   5.0000000000000000e-01   5.0000000000000000e-01   5.0000000000000000e-01   5.0000000000000000e-01   5.0000000000000000e-01   5.0000000000000000e-01   5.0000000000000000e-01   5.0000000000000000e-01   5.0000000000000000e-01   5.0000000000000000e-01   5.0000000000000000e-01   5.0000000000000000e-01   5.0000000000000000e-01   5.0000000000000000e-01   5.0000000000000000e-01   5.0000000000000000e-01   5.0000000000000000e-01   5.0000000000000000e-01   </DataArray> 
</CellData> 
</Piece>
</UnstructuredGrid>
</VTKFile>