<?xml version="1.0"?>
<VTKFile type="UnstructuredGrid"  version="0.1"  >
<UnstructuredGrid>
<Piece  NumberOfPoints="777" NumberOfCells="1376">
<Points>
<DataArray  type="Float64"  NumberOfComponents="3"  format="ascii">3.999999999999964 0 0  4.249999999999965 0 0  4.124999999998478 0.2534792888374535 0  4.374999999998479 0.2534792888374535 0  4.499999999999966 0 0  4.249999999996992 0.506958577674907 0  4.624999999998479 0.2534792888374535 0  4.499999999996993 0.506958577674907 0  4.749999999996994 0.506958577674907 0  4.749999999999967 0 0  4.874999999998481 0.2534792888374535 0  4.999999999999968 0 0  4.374999999995506 0.7604378665123606 0  4.624999999995506 0.7604378665123606 0  4.499999999994019 1.013917155349814 0  5.99999999999997 0 0  6.249999999999971 0 0  6.124999999997403 0.2534792888376092 0  6.374999999997405 0.2534792888376092 0  6.499999999999972 0 0  6.249999999994837 0.5069585776752185 0  6.624999999997405 0.2534792888376092 0  6.499999999994838 0.5069585776752185 0  6.749999999994839 0.5069585776752185 0  6.749999999999972 0 0  6.874999999997407 0.2534792888376092 0  6.999999999999973 0 0  6.374999999992271 0.7604378665128277 0  6.624999999992271 0.7604378665128277 0  6.499999999989704 1.013917155350437 0  1.999999999999982 0 0  2.24999999999998 0 0  2.12499999999946 0.2613818370536612 0  2.374999999999459 0.2613818370536612 0  2.499999999999979 0 0  2.249999999998939 0.5227636741073225 0  2.624999999999457 0.2613818370536612 0  2.499999999998937 0.5227636741073225 0  2.749999999998935 0.5227636741073225 0  2.749999999999977 0 0  2.874999999999455 0.2613818370536612 0  2.999999999999975 0 0  2.374999999998417 0.7841455111609837 0  2.624999999998415 0.7841455111609837 0  2.499999999997895 1.045527348214645 0  1.999999999998379 2 0  1.74999999999856 2 0  1.874999999998781 1.716506350946107 0  1.624999999998962 1.716506350946107 0  1.499999999998741 2 0  1.749999999999184 1.433012701892215 0  1.374999999999143 1.716506350946107 0  1.499999999999365 1.433012701892215 0  1.249999999999545 1.433012701892215 0  1.249999999998922 2 0  1.124999999999324 1.716506350946107 0  0.9999999999991025 2 0  1.624999999999586 1.149519052838322 0  1.374999999999767 1.149519052838322 0  1.499999999999988 0.8660254037844294 0  7.999999999999975 0 0  8.249999999999975 0 0  8.124690294450405 0.261918262795331 0  8.374690294450405 0.261918262795331 0  8.499999999999975 0 0  8.249380588900834 0.523836525590662 0  8.624690294450405 0.261918262795331 0  8.499380588900834 0.523836525590662 0  8.749380588900834 0.523836525590662 0  8.749999999999975 0 0  8.874690294450406 0.261918262795331 0  8.999999999999977 0 0  8.374070883351264 0.785754788385993 0  8.624070883351264 0.785754788385993 0  8.498761177801693 1.047673051181324 0  18.99999999999849 2 0  18.74999999999811 2 0  18.87499999999887 1.71650635094611 0  18.62499999999849 1.71650635094611 0  18.49999999999773 2 0  18.74999999999925 1.433012701892219 0  18.37499999999811 1.71650635094611 0  18.49999999999887 1.433012701892219 0  18.24999999999849 1.433012701892219 0  18.24999999999736 2 0  18.12499999999773 1.71650635094611 0  17.99999999999698 2 0  18.62499999999962 1.149519052838329 0  18.37499999999925 1.149519052838329 0  18.5 0.8660254037844386 0  16.99999999999547 2 0  16.74999999999509 2 0  16.87499999999629 1.746520711162699 0  16.62499999999591 1.746520711162699 0  16.49999999999471 2 0  16.7499999999971 1.493041422325399 0  16.37499999999553 1.746520711162699 0  16.49999999999672 1.493041422325399 0  16.24999999999635 1.493041422325399 0  16.24999999999434 2 0  16.12499999999515 1.746520711162699 0  15.99999999999396 2 0  16.62499999999792 1.239562133488098 0  16.37499999999754 1.239562133488098 0  16.49999999999874 0.9860828446507974 0  12.99999999998939 2 0  12.74999999998901 2 0  12.87499999999136 1.74652071116254 0  12.62499999999098 1.74652071116254 0  12.49999999998862 2 0  12.74999999999334 1.49304142232508 0  12.3749999999906 1.74652071116254 0  12.49999999999295 1.49304142232508 0  12.24999999999257 1.49304142232508 0  12.24999999998824 2 0  12.12499999999022 1.74652071116254 0  11.99999999998786 2 0  12.62499999999531 1.239562133487619 0  12.37499999999493 1.239562133487619 0  12.49999999999728 0.9860828446501591 0  10.99999999998634 2 0  10.74999999998596 2 0  10.87439297711764 1.749732347235992 0  10.62439297711725 1.749732347235992 0  10.49999999998558 2 0  10.74878595424893 1.499464694471983 0  10.37439297711687 1.749732347235992 0  10.49878595424855 1.499464694471983 0  10.24878595424817 1.499464694471983 0  10.2499999999852 2 0  10.1243929771165 1.749732347235992 0  9.999999999984821 2 0  10.62317893138022 1.249197041707975 0  10.37317893137984 1.249197041707975 0  10.49757190851152 0.9989293889439668 0  14.99999999999243 2 0  14.74999999999205 2 0  14.87499999999383 1.74652071116262 0  14.62499999999345 1.74652071116262 0  14.49999999999167 2 0  14.74999999999522 1.493041422325239 0  14.37499999999307 1.74652071116262 0  14.49999999999484 1.493041422325239 0  14.24999999999446 1.493041422325239 0  14.24999999999129 2 0  14.12499999999268 1.74652071116262 0  13.99999999999091 2 0  14.62499999999661 1.239562133487858 0  14.37499999999624 1.239562133487858 0  14.49999999999801 0.9860828446504779 0  10.24702918641092 0.9928167955694513 0  10.12263620927924 1.24308444833346 0  9.996486464310319 0.986704202194936 0  9.998243232147571 1.493352101097468 0  9.872093487178645 1.236971854958944 0  9.747700510046972 1.487239507722953 0  9.873850255015896 1.743619753861476 0  9.74594374220972 0.9805916088204207 0  9.621550765078046 1.230859261584429 0  9.495401020109121 0.9744790154459053 0  9.749999999984439 2 0  9.623850255015515 1.743619753861476 0  9.499999999984059 2 0  9.373850255015135 1.743619753861476 0  9.497700510046592 1.487239507722953 0  9.24770051004621 1.487239507722953 0  9.249999999983679 2 0  9.123850255014755 1.743619753861476 0  8.999999999983299 2 0  9.371550765077664 1.230859261584429 0  3.999999999993654 2 0  3.749999999994383 2 0  3.874999999994342 1.744460791439874 0  3.624999999995071 1.744460791439874 0  3.499999999995112 2 0  3.74999999999503 1.488921582879748 0  3.3749999999958 1.744460791439874 0  3.499999999995759 1.488921582879748 0  3.249999999996488 1.488921582879748 0  3.249999999995841 2 0  3.124999999996529 1.744460791439874 0  2.99999999999657 2 0  3.624999999995718 1.233382374319621 0  3.374999999996447 1.233382374319621 0  3.499999999996406 0.9778431657594949 0  5.99999999998782 2 0  5.74999999998855 2 0  5.87499999998929 1.751159762945844 0  5.62499999999002 1.751159762945844 0  5.499999999989278 2 0  5.749999999990761 1.502319525891687 0  5.374999999990749 1.751159762945844 0  5.49999999999149 1.502319525891687 0  5.24999999999222 1.502319525891687 0  5.249999999990007 2 0  5.124999999991478 1.751159762945844 0  4.999999999990736 2 0  5.624999999992232 1.253479288837531 0  5.37499999999296 1.253479288837531 0  5.499999999993702 1.004639051783375 0  16.99999999999999 0 0  17.24999999999999 0 0  17.1249999999998 0.2593847116342085 0  17.37499999999981 0.2593847116342085 0  17.49999999999999 0 0  17.24999999999962 0.518769423268417 0  17.62499999999981 0.2593847116342085 0  17.49999999999962 0.518769423268417 0  17.74999999999962 0.518769423268417 0  17.75 0 0  17.87499999999981 0.2593847116342085 0  18 0 0  17.37499999999944 0.7781541349026255 0  17.62499999999944 0.7781541349026255 0  17.49999999999925 1.037538846536834 0  14.99999999999999 0 0  15.24999999999999 0 0  15.12499999999929 0.2488402370542198 0  15.37499999999929 0.2488402370542198 0  15.49999999999999 0 0  15.24999999999858 0.4976804741084396 0  15.62499999999929 0.2488402370542198 0  15.49999999999858 0.4976804741084396 0  15.74999999999858 0.4976804741084396 0  15.74999999999999 0 0  15.87499999999929 0.2488402370542198 0  15.99999999999999 0 0  15.37499999999788 0.7465207111626594 0  15.62499999999788 0.7465207111626594 0  15.49999999999718 0.9953609482168791 0  7.999999999982053 2 0  7.749999999982765 2 0  7.874963130275843 1.744524651647608 0  7.624963130276555 1.744524651647608 0  7.499999999983477 2 0  7.749926260569634 1.489049303295215 0  7.374963130277267 1.744524651647608 0  7.499926260570346 1.489049303295215 0  7.249926260571058 1.489049303295215 0  7.24999999998419 2 0  7.12496313027798 1.744524651647608 0  6.999999999984902 2 0  7.624889390863425 1.233573954942823 0  7.374889390864137 1.233573954942823 0  7.499852521157216 0.9780986065904302 0  12.99999999999999 0 0  13.24999999999999 0 0  13.12499999999898 0.2488402370541932 0  13.37499999999898 0.2488402370541932 0  13.49999999999999 0 0  13.24999999999796 0.4976804741083863 0  13.62499999999898 0.2488402370541932 0  13.49999999999796 0.4976804741083863 0  13.74999999999796 0.4976804741083863 0  13.74999999999999 0 0  13.87499999999898 0.2488402370541932 0  13.99999999999999 0 0  13.37499999999694 0.7465207111625796 0  13.62499999999694 0.7465207111625796 0  13.49999999999593 0.9953609482167727 0  10.99999999999998 0 0  11.24999999999998 0 0  11.12489882952011 0.2493755097330886 0  11.37489882952011 0.2493755097330886 0  11.49999999999998 0 0  11.24979765904023 0.4987510194661772 0  11.62489882952011 0.2493755097330886 0  11.49979765904023 0.4987510194661772 0  11.74979765904023 0.4987510194661772 0  11.74999999999998 0 0  11.87489882952011 0.2493755097330886 0  11.99999999999998 0 0  11.37469648856036 0.7481265291992658 0  11.62469648856036 0.7481265291992658 0  11.49959531808049 0.9975020389323543 0  6.749963130281582 1.004962518160435 0  6.874963130284149 0.751483229322826 0  6.99992626057346 0.9960078809704336 0  6.999963130286717 0.4980039404852168 0  7.124926260576027 0.7425285921328244 0  7.249926260578595 0.4890493032952151 0  7.124963130289284 0.2445246516476076 0  7.249889390865338 0.9870532437804319 0  7.374889390867905 0.7335739549428226 0  4.74999999999394 1.011597629458204 0  4.874999999995428 0.7581183406207508 0  4.999999999993861 1.009278103566595 0  4.999999999996
[...]
<PointData  Vectors="t"> 
<DataArray  type="Float64"  Name="t"  NumberOfComponents="3" format="ascii">5.9807727205007932e-04 1.9852488369810573e-02 1.3322676295501878e-14  5.8122236284030571e-04 2.0832692560327049e-02 -5.5511151231257827e-15  4.3654478422561205e-04 2.0356842117994711e-02 -6.6613381477509392e-15  4.2475393702889885e-04 2.1322246425705238e-02 9.6589403142388619e-15  5.6462407202895193e-04 2.1782573823616258e-02 -6.2172489379008766e-15  2.8073286160235078e-04 2.0854225175354180e-02 -3.7747582837255322e-15  4.1258647501907220e-04 2.2257129714076118e-02 3.3306690738754696e-16  2.7303039672388341e-04 2.1804660317220059e-02 -9.7699626167013776e-15  2.6504648594349867e-04 2.2724584080880406e-02 7.1054273576010019e-15  5.4785907999521655e-04 2.2702320234189943e-02 4.4408920985006262e-15  4.0032024222569351e-04 2.3161963105819527e-02 -9.9920072216264089e-15  5.3130719895366774e-04 2.3592316151532122e-02 7.2164496600635175e-15  1.2954149548827232e-04 2.1338756759182731e-02 1.1546319456101628e-14  1.2575441620610306e-04 2.2274071014618313e-02 4.4408920985006262e-16  -1.7527329148503412e-05 2.1812455080824855e-02 -9.9920072216264089e-15  4.6481499365147450e-04 2.6863025895642934e-02 -1.7319479184152442e-14  4.4865355756729119e-04 2.7612532000081735e-02 -4.4408920985006262e-16  3.3918383920750195e-04 2.7251714576903341e-02 1.9428902930940239e-14  3.2744928456518441e-04 2.7987674937197782e-02 -2.4202861936828413e-14  4.3294311208519343e-04 2.8335478504300404e-02 2.6645352591003757e-14  2.1734460963307445e-04 2.7633849388012388e-02 -1.7763568394002505e-15  3.1593576440436255e-04 2.8697258777204970e-02 -1.5543122344752192e-15  2.0975801983669218e-04 2.8356344272215228e-02 2.6978419498391304e-14  2.0222619110099593e-04 2.9052827018568483e-02 -3.1086244689504383e-14  4.1752461277133612e-04 2.9032274783610035e-02 -3.1086244689504383e-14  3.0460503013252094e-04 2.9380928885637703e-02 3.5749181392930041e-14  4.0295095605180631e-04 2.9703227873207450e-02 -3.1086244689504383e-15  9.9276499763822912e-05 2.8003830868474577e-02 -2.2204460492503131e-14  9.5647159768508239e-05 2.8713225816691890e-02 -3.9968028886505635e-15  -1.5024692950227347e-05 2.8363374911712591e-02 2.7755575615628914e-14  6.7718226123991698e-04 1.0876532802774008e-02 -4.6629367034256575e-15  6.7284228716657513e-04 1.2117376991230944e-02 -3.5527136788005009e-15  4.8084716254881421e-04 1.1499225103584032e-02 7.9936057773011271e-15  4.8202564455079866e-04 1.2727494695304209e-02 -6.6613381477509392e-15  6.6802618230255018e-04 1.3325546336823701e-02 9.8809849191638932e-15  2.9843275846119788e-04 1.2114710661587869e-02 -3.5527136788005009e-15  4.7994676168972017e-04 1.3920852007444418e-02 -3.9968028886505635e-15  3.0013283058805129e-04 1.3329860524418313e-02 9.4368957093138306e-15  2.9916511713823368e-04 1.4508321746444897e-02 -6.2172489379008766e-15  6.6029525743749318e-04 1.4500000052675155e-02 -7.5495165674510645e-15  4.7553431839286731e-04 1.5079747496072993e-02 1.1657341758564144e-14  6.5246934153662117e-04 1.5640370444336082e-02 -5.1070259132757201e-15  1.2394497350343148e-04 1.2724407265481408e-02 -4.6629367034256575e-15  1.2467977308994183e-04 1.3923747159206301e-02 -5.5511151231257827e-15  -4.6639115929281161e-05 1.3329362230462882e-02 8.6597395920762210e-15  -6.5664558637656967e-04 1.0945317002895250e-02 3.2196467714129540e-15  -6.3489574813724303e-04 9.6792308223728751e-03 3.2196467714129540e-15  -4.4275272481164585e-04 1.0296590440060149e-02 -6.6613381477509392e-15  -4.2108270354157540e-04 9.0067976876156974e-03 2.2204460492503131e-15  -6.1081840884091854e-04 8.3830456830971123e-03 -5.7731597280508140e-15  -2.5036172337022933e-04 9.6322282697466344e-03 2.6645352591003757e-15  -3.8672178571408367e-04 7.6920395091173432e-03 2.1094237467877974e-15  -2.2374355845089511e-04 8.3209249047480061e-03 -3.9968028886505635e-15  -2.0921459685041555e-04 6.9764371902883981e-03 1.3322676295501878e-15  -5.7162973875080070e-04 7.0616543907651153e-03 2.5535129566378600e-15  -3.5976490888245394e-04 6.3434052959928655e-03 -3.7747582837255322e-15  -5.7084051278510906e-04 5.6725194055327055e-03 1.1102230246251565e-16  -7.7901051807272026e-05 8.9575745891037339e-03 2.1094237467877974e-15  -7.4998658532221540e-05 7.6079583238188864e-03 4.4408920985006262e-16  8.5701009444050236e-05 8.3034819769303159e-03 -3.7747582837255322e-15  3.4093026753445610e-04 3.2130210355901578e-02 6.4726002335646626e-14  3.2595084477704539e-04 3.2681555329728385e-02 -5.6843418860808015e-14  2.4439110185259239e-04 3.2418048820402778e-02 -1.2434497875801753e-14  2.3418025478938453e-04 3.2957379167539491e-02 7.1165295878472534e-14  3.1229942438482095e-04 3.3209807606547237e-02 -1.2434497875801753e-14  1.5128067394865052e-04 3.2699706803702711e-02 -5.7065463465733046e-14  2.2435530692810346e-04 3.3473752886275188e-02 -6.2838623193783860e-14  1.4486066899044303e-04 3.3226993078547484e-02 -1.2434497875801753e-14  1.3870684585559623e-04 3.3731863242584703e-02 7.6161299489285739e-14  2.9922817137895130e-04 3.3715477438025387e-02 7.5939254884360707e-14  2.1508379612333872e-04 3.3967922074357837e-02 -1.2212453270876722e-14  2.8787483460390728e-04 3.4199275905630322e-02 -6.9499961341534799e-14  6.1344805494356613e-05 3.2970277720687280e-02 7.0499162063697440e-14  5.8596519889486665e-05 3.3486144113983984e-02 -6.2172489379008766e-14  -2.5322109611369825e-05 3.3231383442395179e-02 -1.1768364061026659e-14  -1.5128565930666582e-05 4.1110431267595504e-02 -1.7763568394002505e-15  -1.6207800564327357e-05 4.1105165478747208e-02 -2.7977620220553945e-14  -1.4233817769770951e-05 4.1109043677818424e-02 2.7200464103316335e-14  -1.5250242964670591e-05 4.1102869452317559e-02 -4.6629367034256575e-15  -1.7739655979065461e-05 4.1097390190786842e-02 3.6193270602780103e-14  -1.2616370005380517e-05 4.1107268732092472e-02 -2.6645352591003757e-14  -1.6447372408912031e-05 4.1093862772204504e-02 -3.3972824553529790e-14  -1.3309492513435828e-05 4.1099909082605302e-02 3.6415315207705135e-14  -1.4064751368447759e-05 4.1089533635268127e-02 -5.5511151231257827e-15  -1.9572499858844239e-05 4.1086556514240202e-02 -5.1070259132757201e-15  -1.7806192349922867e-05 4.1081547376141780e-02 4.3076653355456074e-14  -2.1670578731480816e-05 4.1072170150417309e-02 -4.1300296516055823e-14  -1.0364461217049481e-05 4.1104517497497883e-02 -7.3274719625260332e-15  -1.0567873456768240e-05 4.1095713022771152e-02 -3.3528735343679728e-14  -7.2272872124745646e-06 4.1100254174152862e-02 3.7192471324942744e-14  -3.4242784596072440e-05 4.0971684531013852e-02 6.0174087934683484e-14  -3.7873217938244608e-05 4.0933171409409663e-02 5.7731597280508140e-15  -2.9624691650687041e-05 4.0955629725677456e-02 -6.6835426082434424e-14  -3.2488529637886288e-05 4.0914199791938000e-02 6.3060667798708891e-14  -4.1865642697258565e-05 4.0888301415182515e-02 -7.3496764230185363e-14  -2.3628684602927663e-05 4.0938366747126920e-02 7.5495165674510645e-15  -3.5573896010054895e-05 4.0866186470835841e-02 8.3266726846886741e-15  -2.5603405333196605e-05 4.0893898066629797e-02 -7.4829031859735551e-14  -2.7710389714608041e-05 4.0842628551490234e-02 6.9499961341534799e-14  -4.6163137469523718e-05 4.0836613181410408e-02 6.7945649107059580e-14  -3.8885791511678036e-05 4.0811115260077191e-02 -7.9269923958236177e-14  -5.0773512859647596e-05 4.0777630513390339e-02 7.4384942649885488e-15  -1.6344848045468652e-05 4.0918371142625087e-02 6.3060667798708891e-14  -1.7344263898655399e-05 4.0870662715018935e-02 7.5495165674510645e-15  -7.8969568975129079e-06 4.0895858975552701e-02 -7.2164496600635175e-14  -1.2971321189403362e-04 3.9325057797351515e-02 -1.3988810110276972e-14  -1.3814270350165359e-04 3.9127044553272428e-02 -1.0147438445073931e-13  -1.0258214037661695e-04 3.9233404306679875e-02 1.1590728377086634e-13  -1.0901442072741574e-04 3.9028593803350331e-02 -1.6653345369377348e-14  -1.4693344817384713e-04 3.8914895588374132e-02 1.1868284133242923e-13  -7.2835793334835586e-05 3.9138711889287969e-02 -1.0169642905566434e-13  -1.1568530494066032e-04 3.8809410949084633e-02 -1.0214051826551440e-13  -7.7156715203807735e-05 3.8926985892014154e-02 1.1857181902996672e-13  -8.1608151072831703e-05 3.8700659047701591e-02 -1.7763568394002505e-14  -1.5604287437809283e-04 3.8688130288761835e-02 -1.9539925233402755e-14  -1.2257323873132719e-04 3.8575369160660733e-02 1.2112533198660458e-13  -1.6548918162873072e-04 3.8446296310703842e-02 -1.0147438445073931e-13  -4.0581849127363512e-05 3.9037735754520075e-02 -1.5765166949677223e-14  -4.2686190076413055e-05 3.8818876628455734e-02 -1.0347278589506459e-13  -5.9359790300916870e-06 3.8931172765536814e-02 1.2023715356690445e-13  -2.0636204253188239e-04 3.7319843175766421e-02 1.1124434706744069e-13  -2.1745532765726772e-04 3.6995945281500298e-02 -1.6209256159527285e-14  -1.6138015932676275e-04 3.7166274083132333e-02 -9.2814644858663087e-14  -1.6972825318140039e-04 3.6833467347333060e-02 1.0613732115416497e-13  -2.2866211943917136e-04 3.6653967989130232e-02 -9.1038288019262836e-14  -1.1315249400301042e-04 3.7008953220235785e-02 -1.6209256159527285e-14  -1.7822425522862062e-04 3.6482465983435852e-02 -1.3766765505351941e-14  -1.1876270783672815e-04 3.6667218085507769e-02 -9.0816243414337805e-14  -1.2436585787911625e-04 3.6307154696980426e-02 1.0225154056797692e-13  -2.4020791700474220e-04 3.6293596179445609e-02 1.0069722833350170e-13  -1.8691671018067346e-04 3.6112932197492120e-02 -8.9039886574937555e-14  -2.5175627582663118e-04 3.5914493153542670e-02 -7.9936057773011271e-15  -6.1840962760184581e-05 3.6843506775114498e-02 1.0647038806155251e-13  -6.4556466427001524e-05 3.6492687638887134e-02 -1.5321077739827160e-14  -7.6644980815387953e-06 3.6670572829011983e-02 -8.8595797365087492e-14  -7.2331091246935486e-05 4.0459402485067075e-02 -9.1260332624187868e-14  -7.8398857587869131e-05 4.0356698503497324e-02 9.4368957093138306e-14  -5.8935504274382211e-05 4.0413336725324434e-02 -1.1102230246251565e-15  -6.3589800254337803e-05 4.0305782175205196e-02 -9.4146912488213275e-14  -8.4798396449814462e-05 4.0243764982081598e-02 -3.5527136788005009e-15  -4.3533396334227703e-05 4.0365140819301870e-02 9.4035890185750759e-14  -6.8472553773846201e-05 4.0187758863260981e-02 1.0047518372857667e-13  -4.6678690663881639e-05 4.0252618822187447e-02 -5.3290705182007514e-15  -4.9965734329360245e-05 4.0129392479698822e-02 -9.6589403142388619e-14  -9.1503748297805387e-05 4.0120120398977610e-02 -9.9253938401488995e-14  -7.3577947856007242e-05 4.0058778522225169e-02 -4.6629367034256575e-15  -9.8531212928243406e-05 3.9985283759326196e-02 1.0702549957386509e-13  -2.6232216594035407e-05 4.0312439849625625e-02 -9.2370555648813024e-14  -2.7783573224526847e-05 4.0194732054186999e-02 9.9809049913801573e-14  -7.1492714146526026e-06 4.0255691280870143e-02 -4.2188474935755949e-15  -5.9604434314852739e-06 3.6309403016003383e-02 1.0114131754335176e-13  -6.5754439375398377e-05 3.6122328511877799e-02 -8.8817841970012523e-14  -4.0524790041462921e-06 3.5929431329954742e-02 -1.1546319456101628e-14  -1.2863844610677688e-04 3.5927282218760181e-02 -1.0880185641326534e-14  -6.6865250805347998e-05 3.5732798704691260e-02 9.4479979395600822e-14  -1.3280539424176396e-04 3.5527830492279033e-02 -8.3044682241961709e-14  -1.9418102427493089e-04 3.5723213060841363e-02 9.3591800975900696e-14  -2.0544979943970532e-06 3.5529983920825736e-02 -8.1712414612411521e-14  -6.7926853799304965e-05 3.5323303262543626e-02 -1.1102230246251565e-14  2.6449178325282929e-07 3.5110447064182204e-02 8.8040685852774914e-14  -2.6386652160348412e-04 3.5514873519145951e-02 -8.6597395920762210e-14  -2.0352127655032248e-04 3.5313562950151867e-02 -7.3274719625260332e-15  -2.7655152903549585e-04 3.5094675831845112e-02 9.0705221111875289e-14  -2.1316262432735655e-04 3.4883233977246131e-02 -8.1712414612411521e-14  -1.3917233137594742e-04 3.5108196512587786e-02 8.8595797365087492e-14  -1.4573710861842670e-04 3.4667536704864665e-02 -7.9936057773011271e-15  -2.8969559988190063e-04 3.4653579180084382e-02 -7.9936057773011271e-15  -2.2321399835401046e-04 3.4431587667597241e-02 8.4598994476436928e-14  -3.0408907063428359e-04 3.4190839409401153e-02 -7.4384942649885488e-14  -7.1231373215185911e-05 3.4893305406810460e-02 -7.7049477908985864e-14  -6.1558579635012656e-04 1.9860127546176942e-02 9.7699626167013776e-15  -6.2935069729186388e-04 1.8848571865705543e-02 -3.1086244689504383e-15  -4.6361932092064961e-04 1.9367591111335680e-02 -5.7731597280508140e-15  -4.7355539637483623e-04 1.8339722505555711e-02 7.9936057773011271e-15  -6.4321379364584708e-04 1.7805553163641297e-02 -5.5511151231257827e-15  -3.0906766261162844e-04 1.8866874670083744e-02 -3.7747582837255322e-15  -4.8255373640104793e-04 1.7280063393759426e-02 -4.4408920985006262e-15  -3.1527597360136994e-04 1.7822214095972067e-02 -5.7731597280508140e-15  -3.2043116903834878e-04 1.6744923071014162e-02 8.9928064994637680e-15  -6.5572886576226175e-04 1.6731111609552429e-02 8.5487172896137054e-15  -4.8993283629172879e-04 1.6188326136700071e-02 -3.1086244689504383e-15  -6.6748619307221979e-04 1.5625700053310321e-02 -7.5495165674510645e-15  -1.5227458833710905e-04 1.8353133140095235e-02 9.4368957093138306e-15  -1.5533680002643990e-04 1.7291465947346096e-02 -5.5511151231257827e-15  7.0050764181539549e-06 1.7828638730287727e-02 -3.9968028886505635e-15  -4.8445802655594505e-04 2.6863536589423420e-02 -1.6875389974302379e-14  -5.0087408155286006e-04 2.6087258392524904e-02 1.3211653993039363e-14  -3.7239180828696483e-04 2.6489406710566765e-02 0.0000000000000000e+00  -3.8482302610676200e-04 2.5699371086414624e-02 -1.4654943925052066e-14  -5.1758755736419637e-04 2.5283247985968704e-02 2.9976021664879227e-15  -2.5603960072317911e-04 2.6109238128374290e-02 1.4654943925052066e-14  -3.9730344170418874e-04 2.4881399057754439e-02 9.2148511043887993e-15  -2.6436440566168784e-04 2.5305308445456753e-02 1.5543122344752192e-15  -2.7266746724041724e-04 2.4473188736062634e-02 -1.1990408665951691e-14  -5.3436826627351053e-04 2.4451129478307188e-02 -1.2878587085651816e-14  -4.0976396893910305e-04 2.4035051413287767e-02 5.9952043329758453e-15  -5.5129862143088459e-04 2.3590545528555884e-02 3.1086244689504383e-15  -1.3542165757529645e-04 2.5716723021554810e-02 -1.3544720900426910e-14  -1.3965661127857132e-04 2.4898746604867572e-02 8.6597395920762210e-15  -1.0589601675548010e-05 2.5313570233103655e-02 1.4432899320127035e-15  1.7049489760667669e-05 4.0971419320965818e-02 6.1284310959308641e-14  1.3662290096250196e-05 4.1004249127251313e-02 -5.8397731095283234e-14  9.7480006213679360e-06 4.0990872514878873e-02 3.3306690738754696e-16  7.3879598634363219e-06 4.1020716032163618e-02 5.6288307348495437e-14  1.0604778656442271e-05 4.1031676205702916e-02 -1.1102230246251565e-15  2.8404052748731701e-06 4.1008711341744108e-02 -5.9952043329758453e-14  5.2574289333140456e-06 4.1045389929719067e-02 -5.1514348342607263e-14  1.3809244107099161e-06 4.1035674898428853e-02 1.1102230246251565e-16  2.1816179751610321e-08 4.1057738556620427e-02 4.9849013805669529e-14  7.8764502903228006e-06 4.1054177548524806e-02 4.9515946898281982e-14  3.3506837388008748e-06 4.1065359147751002e-02 -1.9984014443252818e-15  5.5677841165335806e-06 4.1072196351208956e-02 -4.4408920985006262e-14  -3.5802733762135830e-06 4.1023923885795344e-02 5.5955240441107890e-14  -4.2822896721972370e-06 4.1048278265211069e-02 -5.2180482157382357e-14  -9.4000629313750750e-06 4.1037075799779332e-02 5.5511151231257827e-16  5.6044835092250445e-05 4.0458981044625530e-02 -9.0372154204487742e-14  5.0121284534521138e-05 4.0552010711673581e-02 -4.4408920985006262e-16  3.8348063228776930e-05 4.0510468334723382e-02 8.7374552037999820e-14  3.4020436789461428e-05 4.0598619845033102e-02 -8.4821039081361960e-14  4.4514458949707070e-05 4.0635792813452976e-02 8.2378548427186615e-14  2.1684666178689582e-05 4.0559668459605458e-02 4.4408920985006262e-16  2.9919482176787859e-05 4.0677761405870094e-02 5.5511151231257827e-16  1.8861020231852876e-05 4.0643039166775585e-02 8.1601392309949006e-14  1.6186933499584555e-05 4.0717651822938294e-02 -7.9491968563161208e-14  3.9213278744454350e-05 4.0710809539871273e-02 -7.9269923958236177e-14  2.6048852836968450e-05 4.0748380486339775e-02 7.5051076464660582e-14  3.4234967354662693e-05 4.0777543459188381e-02 9.9920072216264089e-16  6.1408612238578186e-06 4.0604503951590654e-02 -8.5487172896137054e-14  4.7428276346295206e-06 4.0683323628130985e-02 1.5543122344752192e-15  -8.1716337803072747e-06 4.0645764587752820e-02 8.2711615334574162e-14  -3.6123809105026439e-04 3.2138451415163138e-02 6.3948846218409017e-14  -3.7394361161235956e-04 3.1564700961061010e-02 -9.3258734068513149e-15  -2.7617400663859648e-04 3.1863537978978229e-02 -5.1514348342607263e-14  -2.8647647102109097e-04 3.1278211876263562e-02 5.4622972811557702e-14  -3.8815860809382485e-04 3.0967012037393826e-02 -4.5963233219481481e-14  -1.8737351405384572e-04 3.1583473732358702e-02 -7.7715611723760958e-15  -2.9717287318775654e-04 3.0668851484716431e-02 -5.3290705182007514e-15  -1.9431654446333546e-04 3.0986389996209618e-02 -4.7295500849031669e-14  -2.0138736058883389e-04 3.0365200189625075e-02 4.7295500849031669e-14  -4.0287543059780440e-04 3.0344989122901178e-02 4.4853010194856324e-14  -3.0823642184674149e-04 3.0034880295033206e-02 -3.8857805861880479e-14  -4.1856581242338819e-04 2.9698218868944970e-02 -4.4408920985006262e-15  -9.4643329531018949e-05 3.1292901804581774e-02 5.7287508070658077e-14  -9.7972522311362553e-05 3.0683898453922942e-02 -7.5495165674510645e-15  1.8957149344744906e-06 3.0992765671454481e-02 -4.7739590058881731e-14  1.1431189665700447e-04 3.9324368051413483e-02 -1.0880185641326534e-14  1.0595573320504315e-04 3.9508817253069650e-02 1.1535217225855376e-13  8.1257674832913018e-05 3.9423598592237985e-02 -1.0658141036401503e-13  7.5113378068425440e-05 3.9601226896068153e-02 -9.5479180117763462e-15  9.7933589979115609e-05 3.9680131946746799e-02 -1.0413891970983968e-13  4.9843228808410522e-05 3.9519690116977091e-02 1.1490808304870370e-13  6.9197055772907134e-05 3.9765950209074807e-02 1.0969003483296547e-13  4.5799035792826182e-05 3.9690587230536201e-02 -1.0369483049998962e-13  4.1903338762416809e-05 3.9848833148222740e-02 -7.3274719625260332e-15  9.0221351902064484e-05 3.9838789262242047e-02 -5.7731597280508140e-15  6.3516454776202380e-05 3.9918257764352538e-02 -1.0080825063596421e-13  8.2857608075692646e-05 3.9985268646555272e-02 1.0302869668521453e-13  2.0140791551437331e-05 3.9609653322364990e-02 -8.2156503822261584e-15  1.8115026389375899e-05 3.9774054034099615e-02 1.0857981180834031e-13  -7.7359483403593998e-06 3.9694535358318017e-02 -1.0236256287043943e-13  1.9135974374906439e-04 3.7319662294720057e-02 1.0935696792557792e-13  1.8080939525821904e-04 3.7626290626483261e-02 -9.3258734068513149e-14  1.3825433019398758e-04 3.7481790771087820e-02 -1.8651746813702630e-14  1.3041875918173851e-04 3.7779794151866164e-02 1.1268763699945339e-13  1.7043890415280316e-04 3.7916105400113143e-02 -1.8873791418627661e-14  8.7268386543382093e-05 3.7640004497680346e-02 -9.3924867883288243e-14  1.2276121565679698e-04 3.8061113756408194e-02 -9.6811447747313650e-14  8.2148810068183309e-05 3.7929402143500934e-02 -1.7985612998927536e-14  7.7091289570230259e-05 3.8202354085963619e-02 1.1546319456101628e-13  1.6039927028099754e-04 3.8189424424132312e-02 1.1535217225855376e-13  1.1533221000903371e-04 3.8326164439342003e-02 -1.6875389974302379e-14  1.5071337583927313e-04 3.8446683786830027e-02 -1.0147438445073931e-13  3.8613613807858549e-05 3.7790381223639868e-02 1.1379786002407855e-13  3.6090732770333034e-05 3.8071417727729151e-02 -9.8143715376863838e-14  -7.5461643747054552e-06 3.7934102219418286e-02 -1.9761969838327786e-14  -1.0456860349616903e-05 2.9058885644124621e-02 -3.0420110874729289e-14  9.6341408777345094e-05 2.9395556804125533e-02 3.7636560534792807e-14  -6.1075750625860792e-06 2.9728641466878813e-02 -4.8849813083506888e-15  1.9889124624006271e-04 2.9722236012644676e-02 -3.1086244689504383e-15  9.6675771408927247e-05 3.0052482625328780e-0