<?xml version="1.0"?>
<VTKFile type="UnstructuredGrid"  version="0.1"  >
<UnstructuredGrid>
<Piece  NumberOfPoints="777" NumberOfCells="1376">
<Points>
<DataArray  type="Float64"  NumberOfComponents="3"  format="ascii">3.999999999999964 0 0  4.249999999999965 0 0  4.124999999998478 0.2534792888374535 0  4.374999999998479 0.2534792888374535 0  4.499999999999966 0 0  4.249999999996992 0.506958577674907 0  4.624999999998479 0.2534792888374535 0  4.499999999996993 0.506958577674907 0  4.749999999996994 0.506958577674907 0  4.749999999999967 0 0  4.874999999998481 0.2534792888374535 0  4.999999999999968 0 0  4.374999999995506 0.7604378665123606 0  4.624999999995506 0.7604378665123606 0  4.499999999994019 1.013917155349814 0  5.99999999999997 0 0  6.249999999999971 0 0  6.124999999997403 0.2534792888376092 0  6.374999999997405 0.2534792888376092 0  6.499999999999972 0 0  6.249999999994837 0.5069585776752185 0  6.624999999997405 0.2534792888376092 0  6.499999999994838 0.5069585776752185 0  6.749999999994839 0.5069585776752185 0  6.749999999999972 0 0  6.874999999997407 0.2534792888376092 0  6.999999999999973 0 0  6.374999999992271 0.7604378665128277 0  6.624999999992271 0.7604378665128277 0  6.499999999989704 1.013917155350437 0  1.999999999999982 0 0  2.24999999999998 0 0  2.12499999999946 0.2613818370536612 0  2.374999999999459 0.2613818370536612 0  2.499999999999979 0 0  2.249999999998939 0.5227636741073225 0  2.624999999999457 0.2613818370536612 0  2.499999999998937 0.5227636741073225 0  2.749999999998935 0.5227636741073225 0  2.749999999999977 0 0  2.874999999999455 0.2613818370536612 0  2.999999999999975 0 0  2.374999999998417 0.7841455111609837 0  2.624999999998415 0.7841455111609837 0  2.499999999997895 1.045527348214645 0  1.999999999998379 2 0  1.74999999999856 2 0  1.874999999998781 1.716506350946107 0  1.624999999998962 1.716506350946107 0  1.499999999998741 2 0  1.749999999999184 1.433012701892215 0  1.374999999999143 1.716506350946107 0  1.499999999999365 1.433012701892215 0  1.249999999999545 1.433012701892215 0  1.249999999998922 2 0  1.124999999999324 1.716506350946107 0  0.9999999999991025 2 0  1.624999999999586 1.149519052838322 0  1.374999999999767 1.149519052838322 0  1.499999999999988 0.8660254037844294 0  7.999999999999975 0 0  8.249999999999975 0 0  8.124690294450405 0.261918262795331 0  8.374690294450405 0.261918262795331 0  8.499999999999975 0 0  8.249380588900834 0.523836525590662 0  8.624690294450405 0.261918262795331 0  8.499380588900834 0.523836525590662 0  8.749380588900834 0.523836525590662 0  8.749999999999975 0 0  8.874690294450406 0.261918262795331 0  8.999999999999977 0 0  8.374070883351264 0.785754788385993 0  8.624070883351264 0.785754788385993 0  8.498761177801693 1.047673051181324 0  18.99999999999849 2 0  18.74999999999811 2 0  18.87499999999887 1.71650635094611 0  18.62499999999849 1.71650635094611 0  18.49999999999773 2 0  18.74999999999925 1.433012701892219 0  18.37499999999811 1.71650635094611 0  18.49999999999887 1.433012701892219 0  18.24999999999849 1.433012701892219 0  18.24999999999736 2 0  18.12499999999773 1.71650635094611 0  17.99999999999698 2 0  18.62499999999962 1.149519052838329 0  18.37499999999925 1.149519052838329 0  18.5 0.8660254037844386 0  16.99999999999547 2 0  16.74999999999509 2 0  16.87499999999629 1.746520711162699 0  16.62499999999591 1.746520711162699 0  16.49999999999471 2 0  16.7499999999971 1.493041422325399 0  16.37499999999553 1.746520711162699 0  16.49999999999672 1.493041422325399 0  16.24999999999635 1.493041422325399 0  16.24999999999434 2 0  16.12499999999515 1.746520711162699 0  15.99999999999396 2 0  16.62499999999792 1.239562133488098 0  16.37499999999754 1.239562133488098 0  16.49999999999874 0.9860828446507974 0  12.99999999998939 2 0  12.74999999998901 2 0  12.87499999999136 1.74652071116254 0  12.62499999999098 1.74652071116254 0  12.49999999998862 2 0  12.74999999999334 1.49304142232508 0  12.3749999999906 1.74652071116254 0  12.49999999999295 1.49304142232508 0  12.24999999999257 1.49304142232508 0  12.24999999998824 2 0  12.12499999999022 1.74652071116254 0  11.99999999998786 2 0  12.62499999999531 1.239562133487619 0  12.37499999999493 1.239562133487619 0  12.49999999999728 0.9860828446501591 0  10.99999999998634 2 0  10.74999999998596 2 0  10.87439297711764 1.749732347235992 0  10.62439297711725 1.749732347235992 0  10.49999999998558 2 0  10.74878595424893 1.499464694471983 0  10.37439297711687 1.749732347235992 0  10.49878595424855 1.499464694471983 0  10.24878595424817 1.499464694471983 0  10.2499999999852 2 0  10.1243929771165 1.749732347235992 0  9.999999999984821 2 0  10.62317893138022 1.249197041707975 0  10.37317893137984 1.249197041707975 0  10.49757190851152 0.9989293889439668 0  14.99999999999243 2 0  14.74999999999205 2 0  14.87499999999383 1.74652071116262 0  14.62499999999345 1.74652071116262 0  14.49999999999167 2 0  14.74999999999522 1.493041422325239 0  14.37499999999307 1.74652071116262 0  14.49999999999484 1.493041422325239 0  14.24999999999446 1.493041422325239 0  14.24999999999129 2 0  14.12499999999268 1.74652071116262 0  13.99999999999091 2 0  14.62499999999661 1.239562133487858 0  14.37499999999624 1.239562133487858 0  14.49999999999801 0.9860828446504779 0  10.24702918641092 0.9928167955694513 0  10.12263620927924 1.24308444833346 0  9.996486464310319 0.986704202194936 0  9.998243232147571 1.493352101097468 0  9.872093487178645 1.236971854958944 0  9.747700510046972 1.487239507722953 0  9.873850255015896 1.743619753861476 0  9.74594374220972 0.9805916088204207 0  9.621550765078046 1.230859261584429 0  9.495401020109121 0.9744790154459053 0  9.749999999984439 2 0  9.623850255015515 1.743619753861476 0  9.499999999984059 2 0  9.373850255015135 1.743619753861476 0  9.497700510046592 1.487239507722953 0  9.24770051004621 1.487239507722953 0  9.249999999983679 2 0  9.123850255014755 1.743619753861476 0  8.999999999983299 2 0  9.371550765077664 1.230859261584429 0  3.999999999993654 2 0  3.749999999994383 2 0  3.874999999994342 1.744460791439874 0  3.624999999995071 1.744460791439874 0  3.499999999995112 2 0  3.74999999999503 1.488921582879748 0  3.3749999999958 1.744460791439874 0  3.499999999995759 1.488921582879748 0  3.249999999996488 1.488921582879748 0  3.249999999995841 2 0  3.124999999996529 1.744460791439874 0  2.99999999999657 2 0  3.624999999995718 1.233382374319621 0  3.374999999996447 1.233382374319621 0  3.499999999996406 0.9778431657594949 0  5.99999999998782 2 0  5.74999999998855 2 0  5.87499999998929 1.751159762945844 0  5.62499999999002 1.751159762945844 0  5.499999999989278 2 0  5.749999999990761 1.502319525891687 0  5.374999999990749 1.751159762945844 0  5.49999999999149 1.502319525891687 0  5.24999999999222 1.502319525891687 0  5.249999999990007 2 0  5.124999999991478 1.751159762945844 0  4.999999999990736 2 0  5.624999999992232 1.253479288837531 0  5.37499999999296 1.253479288837531 0  5.499999999993702 1.004639051783375 0  16.99999999999999 0 0  17.24999999999999 0 0  17.1249999999998 0.2593847116342085 0  17.37499999999981 0.2593847116342085 0  17.49999999999999 0 0  17.24999999999962 0.518769423268417 0  17.62499999999981 0.2593847116342085 0  17.49999999999962 0.518769423268417 0  17.74999999999962 0.518769423268417 0  17.75 0 0  17.87499999999981 0.2593847116342085 0  18 0 0  17.37499999999944 0.7781541349026255 0  17.62499999999944 0.7781541349026255 0  17.49999999999925 1.037538846536834 0  14.99999999999999 0 0  15.24999999999999 0 0  15.12499999999929 0.2488402370542198 0  15.37499999999929 0.2488402370542198 0  15.49999999999999 0 0  15.24999999999858 0.4976804741084396 0  15.62499999999929 0.2488402370542198 0  15.49999999999858 0.4976804741084396 0  15.74999999999858 0.4976804741084396 0  15.74999999999999 0 0  15.87499999999929 0.2488402370542198 0  15.99999999999999 0 0  15.37499999999788 0.7465207111626594 0  15.62499999999788 0.7465207111626594 0  15.49999999999718 0.9953609482168791 0  7.999999999982053 2 0  7.749999999982765 2 0  7.874963130275843 1.744524651647608 0  7.624963130276555 1.744524651647608 0  7.499999999983477 2 0  7.749926260569634 1.489049303295215 0  7.374963130277267 1.744524651647608 0  7.499926260570346 1.489049303295215 0  7.249926260571058 1.489049303295215 0  7.24999999998419 2 0  7.12496313027798 1.744524651647608 0  6.999999999984902 2 0  7.624889390863425 1.233573954942823 0  7.374889390864137 1.233573954942823 0  7.499852521157216 0.9780986065904302 0  12.99999999999999 0 0  13.24999999999999 0 0  13.12499999999898 0.2488402370541932 0  13.37499999999898 0.2488402370541932 0  13.49999999999999 0 0  13.24999999999796 0.4976804741083863 0  13.62499999999898 0.2488402370541932 0  13.49999999999796 0.4976804741083863 0  13.74999999999796 0.4976804741083863 0  13.74999999999999 0 0  13.87499999999898 0.2488402370541932 0  13.99999999999999 0 0  13.37499999999694 0.7465207111625796 0  13.62499999999694 0.7465207111625796 0  13.49999999999593 0.9953609482167727 0  10.99999999999998 0 0  11.24999999999998 0 0  11.12489882952011 0.2493755097330886 0  11.37489882952011 0.2493755097330886 0  11.49999999999998 0 0  11.24979765904023 0.4987510194661772 0  11.62489882952011 0.2493755097330886 0  11.49979765904023 0.4987510194661772 0  11.74979765904023 0.4987510194661772 0  11.74999999999998 0 0  11.87489882952011 0.2493755097330886 0  11.99999999999998 0 0  11.37469648856036 0.7481265291992658 0  11.62469648856036 0.7481265291992658 0  11.49959531808049 0.9975020389323543 0  6.749963130281582 1.004962518160435 0  6.874963130284149 0.751483229322826 0  6.99992626057346 0.9960078809704336 0  6.999963130286717 0.4980039404852168 0  7.124926260576027 0.7425285921328244 0  7.249926260578595 0.4890493032952151 0  7.124963130289284 0.2445246516476076 0  7.249889390865338 0.9870532437804319 0  7.374889390867905 0.7335739549428226 0  4.74999999999394 1.011597629458204 0  4.874999999995428 0.7581183406207508 0  4.999999999993861 1.009278103566595 0  4.999999999996
[...]
<PointData  Vectors="t"> 
<DataArray  type="Float64"  Name="t"  NumberOfComponents="3" format="ascii">6.3555599032467873e-05 1.6642645184839480e-03 -4.9406564584124654e-324  6.9205682884263892e-05 1.7238448461863410e-03 -4.9406564584124654e-324  6.0838528408778731e-05 1.6962446068825067e-03 0.0000000000000000e+00  6.6953912480861982e-05 1.7545633451686545e-03 4.9406564584124654e-324  7.4903842965438417e-05 1.7793388883903343e-03 4.9406564584124654e-324  5.2294635548065528e-05 1.7229080495278501e-03 4.9406564584124654e-324  7.2960708432584560e-05 1.8090605431099094e-03 -4.9406564584124654e-324  5.8181398030276487e-05 1.7804542970145808e-03 -4.9406564584124654e-324  6.4019419148966889e-05 1.8349413054125148e-03 0.0000000000000000e+00  8.0300383386184209e-05 1.8310333865908552e-03 4.9406564584124654e-324  7.8581206883593114e-05 1.8600403571049752e-03 -4.9406564584124654e-324  8.5021936533263007e-05 1.8792658553123580e-03 -4.9406564584124654e-324  3.2857126111341009e-05 1.7483021550351694e-03 -4.9406564584124654e-324  3.6619094356183487e-05 1.8048212617995513e-03 -4.9406564584124654e-324  3.0168892806036960e-06 1.7753384763423174e-03 -4.9406564584124654e-324  9.0453579216332296e-05 2.0458285901001666e-03 0.0000000000000000e+00  8.6574856586377663e-05 2.0822620222801691e-03 -4.9406564584124654e-324  8.6937114119025507e-05 2.0760294007372325e-03 -4.9406564584124654e-324  8.2000493670825628e-05 2.1138612437571814e-03 0.0000000000000000e+00  8.0115503831016012e-05 2.1167487778435056e-03 0.0000000000000000e+00  7.6170364572632578e-05 2.1235568856868064e-03 0.0000000000000000e+00  7.4057954421355370e-05 2.1501273930307134e-03 0.0000000000000000e+00  6.9879553977222357e-05 2.1687985312500639e-03 0.0000000000000000e+00  6.0186303349055337e-05 2.2129633154434336e-03 0.0000000000000000e+00  7.0961114068409842e-05 2.1489655000838069e-03 4.9406564584124654e-324  6.3443368395098453e-05 2.1844862430110169e-03 4.9406564584124654e-324  5.8844419482204074e-05 2.1786167010462943e-03 0.0000000000000000e+00  4.3815405912957529e-05 2.1578334737093114e-03 -4.9406564584124654e-324  3.7263430019807535e-05 2.2042282533696698e-03 4.9406564584124654e-324  1.4692056974088028e-07 2.1807242597327750e-03 -4.9406564584124654e-324  3.3508728209611540e-05 1.0155342169886085e-03 -4.9406564584124654e-324  3.5474717976884271e-05 1.1149959211245919e-03 -4.9406564584124654e-324  2.7492694082542333e-05 1.0654181344506117e-03 -4.9406564584124654e-324  2.9817156312400719e-05 1.1620177416933749e-03 -4.9406564584124654e-324  3.7859692440563971e-05 1.2088050850182330e-03 0.0000000000000000e+00  2.0451586095952486e-05 1.1120362087120544e-03 4.9406564584124654e-324  3.2583436629576946e-05 1.2531357567695434e-03 0.0000000000000000e+00  2.2654050516909819e-05 1.2055404587721049e-03 4.9406564584124654e-324  2.5245562817415970e-05 1.2936220616071947e-03 -4.9406564584124654e-324  4.0720579241652700e-05 1.2971950187475379e-03 4.9406564584124654e-324  3.5845751559243530e-05 1.3389891398426145e-03 4.9406564584124654e-324  4.4094928748531290e-05 1.3803202324495574e-03 0.0000000000000000e+00  1.1695458869853289e-05 1.1575772536303952e-03 0.0000000000000000e+00  1.3119724159334149e-05 1.2480526319247093e-03 0.0000000000000000e+00  1.2170190352883599e-06 1.2027660122044702e-03 0.0000000000000000e+00  -2.7574681416224848e-05 1.0147776998774682e-03 4.9406564584124654e-324  -2.6054627809746930e-05 9.0983159665891948e-04 4.9406564584124654e-324  -1.9215019213923602e-05 9.6242564969634852e-04 -4.9406564584124654e-324  -1.7642072091293843e-05 8.5451830132655265e-04 -4.9406564584124654e-324  -2.4714218319328660e-05 7.9902761938484257e-04 -4.9406564584124654e-324  -1.0398737728928184e-05 9.0760366435928426e-04 4.9406564584124654e-324  -1.6112221514084389e-05 7.4063532865308198e-04 -4.9406564584124654e-324  -9.1837319651156518e-06 7.9667476657044062e-04 0.0000000000000000e+00  -8.7962978845001716e-06 6.7930268856509482e-04 0.0000000000000000e+00  -2.3431757533156253e-05 6.8209029146302092e-04 4.9406564584124654e-324  -1.5523331165851696e-05 6.2015240667551348e-04 -4.9406564584124654e-324  -2.3785085322664139e-05 5.5697939393363504e-04 0.0000000000000000e+00  -2.0408642892144791e-06 8.5203346252899631e-04 4.9406564584124654e-324  -2.2237986982140989e-06 7.3771393759894388e-04 0.0000000000000000e+00  6.0585052936177345e-06 7.9703288491316882e-04 0.0000000000000000e+00  -6.5261088392520470e-06 2.2582033239959376e-03 0.0000000000000000e+00  -2.3996161919114081e-05 2.2657954158542626e-03 -4.9406564584124654e-324  -2.2853044710320095e-05 2.3085927603200534e-03 4.9406564584124654e-324  -3.8772237244841828e-05 2.3193217370237069e-03 4.9406564584124654e-324  -3.9041813508481473e-05 2.2697433194619767e-03 -4.9406564584124654e-324  -4.5230460023685695e-05 2.3874309862363633e-03 0.0000000000000000e+00  -5.3845383544325067e-05 2.3244945648522226e-03 -4.9406564584124654e-324  -6.0826171369482851e-05 2.3899249938700759e-03 4.9406564584124654e-324  -7.3463266413872799e-05 2.3863067585032515e-03 0.0000000000000000e+00  -5.1906496492843868e-05 2.2698248839707431e-03 4.9406564584124654e-324  -6.4892053666504957e-05 2.3247763709411721e-03 -4.9406564584124654e-324  -6.3246677924329788e-05 2.2677455242426066e-03 4.9406564584124654e-324  -3.8890598995688176e-05 2.3680450910648593e-03 0.0000000000000000e+00  -4.6886958980285967e-05 2.3631194257247279e-03 0.0000000000000000e+00  4.6408613194323238e-06 2.3717238222427184e-03 4.9406564584124654e-324  1.4257377363908067e-04 2.1979178161212068e-03 4.9406564584124654e-324  1.3481119640916205e-04 2.1970246930430900e-03 4.9406564584124654e-324  1.3431604987544567e-04 2.2493179058866528e-03 0.0000000000000000e+00  1.1771029754931073e-04 2.2615841821832013e-03 -4.9406564584124654e-324  1.2347872485164030e-04 2.2129073070183253e-03 4.9406564584124654e-324  8.5895690807934893e-05 2.2730104750993373e-03 0.0000000000000000e+00  1.1227453893022066e-04 2.2733436470668404e-03 -4.9406564584124654e-324  7.6999116940880684e-05 2.2602947940338117e-03 4.9406564584124654e-324  7.0951394664062599e-05 2.2509039533410405e-03 -4.9406564584124654e-324  1.1735196515949355e-04 2.2206001419293325e-03 4.9406564584124654e-324  1.1701395020796667e-04 2.2761740325023929e-03 -4.9406564584124654e-324  1.1119400717307636e-04 2.2126667038244946e-03 4.9406564584124654e-324  1.3855319612054105e-05 2.2771146687417545e-03 -4.9406564584124654e-324  1.0469710432538647e-05 2.2605497253170796e-03 0.0000000000000000e+00  -8.6607195922516159e-05 2.2724365940439114e-03 -4.9406564584124654e-324  7.6552236232123783e-05 2.1629974958320181e-03 -4.9406564584124654e-324  7.0864662327411508e-05 2.1630571063190546e-03 0.0000000000000000e+00  7.5699417655627349e-05 2.2231348802245316e-03 4.9406564584124654e-324  7.1530461467629301e-05 2.2247978387206009e-03 -4.9406564584124654e-324  6.6828500370880883e-05 2.1644706205413027e-03 0.0000000000000000e+00  6.0306997662220918e-05 2.2317889876006911e-03 4.9406564584124654e-324  6.7878382354664860e-05 2.2266675494764803e-03 -4.9406564584124654e-324  5.6542593391124643e-05 2.2315529301612318e-03 0.0000000000000000e+00  5.4622303400075998e-05 2.2321167581681764e-03 0.0000000000000000e+00  6.3831327442674435e-05 2.1666092219456189e-03 -4.9406564584124654e-324  6.5621659320639684e-05 2.2287983885411707e-03 -4.9406564584124654e-324  6.1635891753334128e-05 2.1693476039738933e-03 0.0000000000000000e+00  8.9909136792342647e-06 2.2163211546778069e-03 0.0000000000000000e+00  8.0961180043054985e-06 2.2148921167490085e-03 0.0000000000000000e+00  -5.0955633711644896e-05 2.2218004774506262e-03 4.9406564584124654e-324  5.7106111277376479e-05 2.2262818788389769e-03 0.0000000000000000e+00  5.7026549431418452e-05 2.2278081024013148e-03 -4.9406564584124654e-324  6.0894428745452603e-05 2.2860849433147894e-03 4.9406564584124654e-324  6.1383072148282782e-05 2.2866954448061728e-03 4.9406564584124654e-324  5.7571326444564904e-05 2.2286011045452134e-03 -4.9406564584124654e-324  5.7734560637562240e-05 2.3008926963712074e-03 -4.9406564584124654e-324  6.2277434135816042e-05 2.2866193864013299e-03 4.9406564584124654e-324  5.8591757526478383e-05 2.3012699302008732e-03 -4.9406564584124654e-324  5.9991744410131887e-05 2.3014849453594907e-03 -4.9406564584124654e-324  5.8606298143176537e-05 2.2289597741399726e-03 4.9406564584124654e-324  6.3846594969972674e-05 2.2862326633892971e-03 0.0000000000000000e+00  5.9862721092444847e-05 2.2292241113600225e-03 0.0000000000000000e+00  2.2602222784455768e-05 2.2784661732352667e-03 4.9406564584124654e-324  2.3707400615108983e-05 2.2777644126231191e-03 0.0000000000000000e+00  -2.8054762326778105e-05 2.2823566792206733e-03 4.9406564584124654e-324  6.7821262063108586e-05 2.2345389993507882e-03 0.0000000000000000e+00  6.9782920668050576e-05 2.2377701956261824e-03 4.9406564584124654e-324  7.4025395604783887e-05 2.2910647321781716e-03 -4.9406564584124654e-324  7.5985153641215092e-05 2.2947625222299560e-03 0.0000000000000000e+00  7.1371949882367714e-05 2.2418473949314842e-03 0.0000000000000000e+00  7.5157993999878093e-05 2.3158557927570596e-03 4.9406564584124654e-324  7.7539404269177451e-05 2.2994519308310157e-03 4.9406564584124654e-324  7.7536362951061795e-05 2.3222556192520260e-03 -4.9406564584124654e-324  7.9620215983141650e-05 2.3298537432538298e-03 -4.9406564584124654e-324  7.2369332803894318e-05 2.2468416019303609e-03 -4.9406564584124654e-324  7.8063253942218180e-05 2.3052567593409234e-03 4.9406564584124654e-324  7.3011392681243854e-05 2.2525814234174556e-03 4.9406564584124654e-324  4.0663315156491467e-05 2.2904122152483911e-03 0.0000000000000000e+00  4.3252563674168985e-05 2.2970947729193270e-03 -4.9406564584124654e-324  -1.3466675620435218e-05 2.2956960476305062e-03 0.0000000000000000e+00  5.8737720629186800e-05 2.1877912172669754e-03 4.9406564584124654e-324  5.8602968604483193e-05 2.1939756610721674e-03 4.9406564584124654e-324  6.1471726901277649e-05 2.2512441818856809e-03 4.9406564584124654e-324  6.1764951735660158e-05 2.2576552327037143e-03 0.0000000000000000e+00  5.8641186878083473e-05 2.2001773735297382e-03 -4.9406564584124654e-324  5.4243884887675405e-05 2.2593805197294666e-03 -4.9406564584124654e-324  6.1931453729435683e-05 2.2638134272900327e-03 0.0000000000000000e+00  5.5021701956303401e-05 2.2665719908116569e-03 0.0000000000000000e+00  5.5816575764280981e-05 2.2734743500029768e-03 -4.9406564584124654e-324  5.8674503154599529e-05 2.2061872341807968e-03 0.0000000000000000e+00  6.2337099614823263e-05 2.2695187296920085e-03 -4.9406564584124654e-324  5.8500343691501100e-05 2.2117767701211664e-03 -4.9406564584124654e-324  1.3287273476288110e-05 2.2465671214223948e-03 4.9406564584124654e-324  1.4790653320207475e-05 2.2530893469859402e-03 0.0000000000000000e+00  -4.1464512652500659e-05 2.2479934910303542e-03 0.0000000000000000e+00  -1.3760352766825029e-05 2.3030941971482967e-03 4.9406564584124654e-324  4.3747125270366149e-05 2.3047972084888437e-03 0.0000000000000000e+00  -1.3745385180380473e-05 2.3120923814926452e-03 4.9406564584124654e-324  8.1216604960573054e-05 2.3382845545727223e-03 -4.9406564584124654e-324  4.3725277131197879e-05 2.3136094029988057e-03 0.0000000000000000e+00  8.0835511661590952e-05 2.3479859081005027e-03 0.0000000000000000e+00  7.8368432139901072e-05 2.3128158914334346e-03 4.9406564584124654e-324  -1.4522088221837017e-05 2.3225450828116751e-03 4.9406564584124654e-324  4.3308231343513708e-05 2.3236026231907209e-03 4.9406564584124654e-324  -1.6344401034456760e-05 2.3340299475034221e-03 -4.9406564584124654e-324  7.2128969799654087e-05 2.2590197921497565e-03 4.9406564584124654e-324  7.7860310324439787e-05 2.3197685099949220e-03 0.0000000000000000e+00  7.0056814667782420e-05 2.2656708162375767e-03 -4.9406564584124654e-324  7.4947593158346129e-05 2.3260658503691995e-03 0.0000000000000000e+00  8.0655453793721831e-05 2.3597816766990107e-03 4.9406564584124654e-324  7.8192542568731587e-05 2.3725174010671732e-03 4.9406564584124654e-324  6.5950843805325638e-05 2.2717052738309182e-03 4.9406564584124654e-324  7.0807650179144913e-05 2.3302757527287965e-03 -4.9406564584124654e-324  5.7971662812051051e-05 2.2767746020772692e-03 0.0000000000000000e+00  4.2222205560034574e-05 2.3352262459204400e-03 4.9406564584124654e-324  -5.5386492376257585e-05 1.6639596114262996e-03 0.0000000000000000e+00  -5.0067241156447405e-05 1.5997542369247855e-03 4.9406564584124654e-324  -4.6703519472700651e-05 1.6332943762811763e-03 4.9406564584124654e-324  -4.1372307148083737e-05 1.5662815932917737e-03 0.0000000000000000e+00  -4.5182078837713574e-05 1.5309414303231212e-03 4.9406564584124654e-324  -3.2765531380856182e-05 1.5964755046354025e-03 0.0000000000000000e+00  -3.6640011914948305e-05 1.4947634446390162e-03 4.9406564584124654e-324  -2.8375572960867064e-05 1.5273518893457625e-03 0.0000000000000000e+00  -2.4578414707853809e-05 1.4538447706613864e-03 0.0000000000000000e+00  -4.0888181401908345e-05 1.4574055464484500e-03 0.0000000000000000e+00  -3.2538836605559154e-05 1.4185907162957865e-03 0.0000000000000000e+00  -3.7265025565416601e-05 1.3790173171882173e-03 0.0000000000000000e+00  -1.3844431572535169e-05 1.5591075756218259e-03 -4.9406564584124654e-324  -1.1618293789152309e-05 1.4882470743572541e-03 0.0000000000000000e+00  5.9529987052770300e-06 1.5233316465716401e-03 4.9406564584124654e-324  -8.4849101497498110e-05 2.0486366009350564e-03 0.0000000000000000e+00  -8.5833234764759583e-05 2.0098487858409408e-03 4.9406564584124654e-324  -8.3268205851790681e-05 2.0390857978320651e-03 -4.9406564584124654e-324  -8.2668753782574731e-05 1.9977883941085105e-03 4.9406564584124654e-324  -8.4717301828116790e-05 1.9690704966630018e-03 4.9406564584124654e-324  -7.3266034837606405e-05 2.0327201021511821e-03 -4.9406564584124654e-324  -8.0140821174452698e-05 1.9545631051239671e-03 4.9406564584124654e-324  -7.0904433791759482e-05 1.9855536995015623e-03 4.9406564584124654e-324  -6.6879274204479280e-05 1.9372204305067790e-03 -4.9406564584124654e-324  -8.1899804143938920e-05 1.9260504290190307e-03 0.0000000000000000e+00  -7.6045423346819631e-05 1.9090464377899384e-03 4.9406564584124654e-324  -7.7786685897792356e-05 1.8804433947573272e-03 -4.9406564584124654e-324  -4.2506961928531609e-05 2.0122981924503226e-03 0.0000000000000000e+00  -3.9982747390344361e-05 1.9622344999631570e-03 0.0000000000000000e+00  3.7562580702800465e-06 1.9863538648178108e-03 4.9406564584124654e-324  -1.4729752060570190e-04 2.1618321352269792e-03 0.0000000000000000e+00  -1.5783383209538618e-04 2.1632808874466969e-03 4.9406564584124654e-324  -1.6430243036940232e-04 2.2256660439659006e-03 -4.9406564584124654e-324  -1.7329741508631554e-04 2.2257974542161220e-03 0.0000000000000000e+00  -1.6986840922404248e-04 2.1629512266873080e-03 -4.9406564584124654e-324  -1.6198366697825931e-04 2.2417330407550184e-03 -4.9406564584124654e-324  -1.8709458272607240e-04 2.2227716474106053e-03 -4.9406564584124654e-324  -1.7062319961881170e-04 2.2458023484155142e-03 4.9406564584124654e-324  -1.8590690688877486e-04 2.2518241713560191e-03 0.0000000000000000e+00  -1.8378297615021915e-04 2.1620796058961222e-03 4.9406564584124654e-324  -2.0148832018023846e-04 2.2211151429274182e-03 -4.9406564584124654e-324  -1.9951432727693814e-04 2.1701828125679826e-03 -4.9406564584124654e-324  -1.0813444764582798e-04 2.2238033768749235e-03 0.0000000000000000e+00  -1.1298733768161759e-04 2.2382988845727702e-03 4.9406564584124654e-324  -4.1255402584077325e-05 2.2456296431888024e-03 -4.9406564584124654e-324  -1.1271362053147779e-04 2.1784017707224203e-03 0.0000000000000000e+00  -1.1542345538546147e-04 2.1728446384266572e-03 -4.9406564584124654e-324  -1.2460374764937038e-04 2.2346866700364747e-03 4.9406564584124654e-324  -1.2712481755023443e-04 2.2292362003902321e-03 -4.9406564584124654e-324  -1.1805834307675445e-04 2.1674998507149068e-03 -4.9406564584124654e-324  -1.3263106760210005e-04 2.2438704523895410e-03 -4.9406564584124654e-324  -1.3011704746204670e-04 2.2242514862394979e-03 -4.9406564584124654e-324  -1.3501263098536715e-04 2.2382105327041213e-03 -4.9406564584124654e-324  -1.3807607792985246e-04 2.2338544162159358e-03 0.0000000000000000e+00  -1.2099255857113524e-04 2.1628053132112389e-03 -4.9406564584124654e-324  -1.3352600630631202e-04 2.2201095269598499e-03 0.0000000000000000e+00  -1.2451837950620842e-04 2.1592206248094844e-03 0.0000000000000000e+00  -9.6799323672026741e-05 2.2247216643215845e-03 0.0000000000000000e+00  -9.8939221821639666e-05 2.2202902270823158e-03 -4.9406564584124654e-324  -4.3610552970127666e-05 2.2264784352825141e-03 4.9406564584124654e-324  4.0370010596215640e-06 2.2646361386521570e-03 -4.9406564584124654e-324  -1.2920379291891821e-05 2.2503113491593105e-03 -4.9406564584124654e-324  6.7389731176430412e-08 2.2978758422632101e-03 0.0000000000000000e+00  -1.6291511616768336e-05 2.2770650625454944e-03 4.9406564584124654e-324  -2.8885439039698533e-05 2.2320999308156290e-03 0.0000000000000000e+00  6.1954585172612847e-06 2.3585243813392877e-03 -4.9406564584124654e-324  -3.2885116212246058e-05 2.2513727379184713e-03 0.0000000000000000e+00  -1.1693418535434047e-05 2.3309007767940404e-03 4.9406564584124654e-324  -2.8499455007118716e-05 2.2965542895639589e-03 4.9406564584124654e-324  -4.3757684490813356e-05 2.2094993094858521e-03 -4.9406564584124654e-324  -4.7295841191201907e-05 2.2217059363407498e-03 4.9406564584124654e-324  -5.7046971029487302e-05 2.1832783354902093e-03 0.0000000000000000e+00  9.4864358528081401e-06 2.3437638026919155e-03 -4.9406564584124654e-324  -2.1612811284752343e-06 2.3189460058348301e-03 0.0000000000000000e+00  -2.1098983919867204e-07 2.3292376465030365e-03 0.0000000000000000e+00  -9.3131697847421871e-05 2.2157020896188115e-03 0.0000000000000000e+00  -9.5743187594838827e-05 2.2131931640773316e-03 -4.9406564584124654e-324  -1.0354023939913981e-04 2.2728735180787721e-03 -4.9406564584124654e-324  -1.0617331661864874e-04 2.2702683421270639e-03 0.0000000000000000e+00  -9.8222071582541079e-05 2.2096742326035181e-03 -4.9406564584124654e-324  -1.1306629754822768e-04 2.2933364323031794e-03 -4.9406564584124654e-324  -1.0886144165664835e-04 2.2664827621313678e-03 0.0000000000000000e+00  -1.1643080802514261e-04 2.2884295317380835e-03 4.9406564584124654e-324  -1.1904226055400323e-04 2.2823123980196119e-03 4.9406564584124654e-324  -1.0058818920016837e-04 2.2052781681611068e-03 -4.9406564584124654e-324  -1.1110959370940064e-04 2.2617453120593808e-03 4.9406564584124654e-324  -1.0294154447099061e-04 2.2003125718508482e-03 4.9406564584124654e-324  -8.4841979124549067e-05 2.2714463204396599e-03 4.9406564584124654e-324  -8.7789279961939464e-05 2.2658528956656801e-03 4.9406564584124654e-324  -3.2158175112109518e-05 2.2761865284640732e-03 -4.9406564584124654e-324  -8.7921670960848283e-05 2.2250096374570182e-03 4.9406564584124654e-324  -8.7406082924650175e-05 2.2223831227808372e-03 4.9406564584124654e-324  -9.5129101032061166e-05 2.2788169508667628e-03 4.9406564584124654e-324  -9.4780653737638334e-05 2.2766447580587633e-03 4.9406564584124654e-324  -8.7002344903480875e-05 2.2204992316542820e-03 0.0000000000000000e+00  -1.0081926997030692e-04 2.3032031594147325e-03 -4.9406564584124654e-324  -9.4614648232883156e-05 2.2753453449713334e-03 0.0000000000000000e+00  -1.0078916849887144e-04 2.3005967108421605e-03 4.9406564584124654e-324  -1.0105511801842758e-04 2.2989725067335725e-03 -4.9406564584124654e-324  -8.6806045363735224e-05 2.2192686856579041e-03 0.0000000000000000e+00  -9.4560648001582273e-05 2.2746395396352867e-03 4.9406564584124654e-324  -8.7128765719586597e-05 2.2185777376190342e-03 4.9406564584124654e-324  -7.0629363660811836e-05 2.2762854545779082e-03 -4.9406564584124654e-324  -7.1384309364487633e-05 2.2747335031870868e-03 0.0000000000000000e+00  -1.9803335970867914e-05 2.2812289632846115e-03 0.0000000000000000e+00  1.5981737827366404e-06 2.2249143859164001e-03 0.0000000000000000e+00  2.8965620879987446e-05 2.2472373626103077e-03 4.9406564584124654e-324  2.1189694816416720e-06 2.2652466646635402e-03 4.9406564584124654e-324  4.7218295406202423e-05 2.25