<?xml version="1.0"?>
<VTKFile type="UnstructuredGrid"  version="0.1"  >
<UnstructuredGrid>
<Piece  NumberOfPoints="394" NumberOfCells="690">
<Points>
<DataArray  type="Float64"  NumberOfComponents="3"  format="ascii">18.99999999999849 2 0  18.74999999999811 2 0  18.87499999999887 1.71650635094611 0  18.62499999999849 1.71650635094611 0  18.49999999999773 2 0  18.74999999999925 1.433012701892219 0  18.37499999999811 1.71650635094611 0  18.49999999999887 1.433012701892219 0  18.24999999999849 1.433012701892219 0  18.24999999999736 2 0  18.12499999999773 1.71650635094611 0  17.99999999999698 2 0  18.62499999999962 1.149519052838329 0  18.37499999999925 1.149519052838329 0  18.5 0.8660254037844386 0  16.99999999999547 2 0  16.74999999999509 2 0  16.87499999999629 1.746520711162699 0  16.62499999999591 1.746520711162699 0  16.49999999999471 2 0  16.7499999999971 1.493041422325399 0  16.37499999999553 1.746520711162699 0  16.49999999999672 1.493041422325399 0  16.24999999999635 1.493041422325399 0  16.24999999999434 2 0  16.12499999999515 1.746520711162699 0  15.99999999999396 2 0  16.62499999999792 1.239562133488098 0  16.37499999999754 1.239562133488098 0  16.49999999999874 0.9860828446507974 0  12.99999999998939 2 0  12.74999999998901 2 0  12.87499999999136 1.74652071116254 0  12.62499999999098 1.74652071116254 0  12.49999999998862 2 0  12.74999999999334 1.49304142232508 0  12.3749999999906 1.74652071116254 0  12.49999999999295 1.49304142232508 0  12.24999999999257 1.49304142232508 0  12.24999999998824 2 0  12.12499999999022 1.74652071116254 0  11.99999999998786 2 0  12.62499999999531 1.239562133487619 0  12.37499999999493 1.239562133487619 0  12.49999999999728 0.9860828446501591 0  10.99999999998634 2 0  10.74999999998596 2 0  10.87439297711764 1.749732347235992 0  10.62439297711725 1.749732347235992 0  10.49999999998558 2 0  10.74878595424893 1.499464694471983 0  10.37439297711687 1.749732347235992 0  10.49878595424855 1.499464694471983 0  10.24878595424817 1.499464694471983 0  10.2499999999852 2 0  10.1243929771165 1.749732347235992 0  9.999999999984821 2 0  10.62317893138022 1.249197041707975 0  10.37317893137984 1.249197041707975 0  10.49757190851152 0.9989293889439668 0  14.99999999999243 2 0  14.74999999999205 2 0  14.87499999999383 1.74652071116262 0  14.62499999999345 1.74652071116262 0  14.49999999999167 2 0  14.74999999999522 1.493041422325239 0  14.37499999999307 1.74652071116262 0  14.49999999999484 1.493041422325239 0  14.24999999999446 1.493041422325239 0  14.24999999999129 2 0  14.12499999999268 1.74652071116262 0  13.99999999999091 2 0  14.62499999999661 1.239562133487858 0  14.37499999999624 1.239562133487858 0  14.49999999999801 0.9860828446504779 0  10.24702918641092 0.9928167955694513 0  10.12263620927924 1.24308444833346 0  9.996486464310319 0.986704202194936 0  9.998243232147571 1.493352101097468 0  9.872093487178645 1.236971854958944 0  9.873850255015896 1.743619753861476 0  16.99999999999999 0 0  17.24999999999999 0 0  17.1249999999998 0.2593847116342085 0  17.37499999999981 0.2593847116342085 0  17.49999999999999 0 0  17.24999999999962 0.518769423268417 0  17.62499999999981 0.2593847116342085 0  17.49999999999962 0.518769423268417 0  17.74999999999962 0.518769423268417 0  17.75 0 0  17.87499999999981 0.2593847116342085 0  18 0 0  17.37499999999944 0.7781541349026255 0  17.62499999999944 0.7781541349026255 0  17.49999999999925 1.037538846536834 0  14.99999999999999 0 0  15.24999999999999 0 0  15.12499999999929 0.2488402370542198 0  15.37499999999929 0.2488402370542198 0  15.49999999999999 0 0  15.24999999999858 0.4976804741084396 0  15.62499999999929 0.2488402370542198 0  15.49999999999858 0.4976804741084396 0  15.74999999999858 0.4976804741084396 0  15.74999999999999 0 0  15.87499999999929 0.2488402370542198 0  15.99999999999999 0 0  15.37499999999788 0.7465207111626594 0  15.62499999999788 0.7465207111626594 0  15.49999999999718 0.9953609482168791 0  12.99999999999999 0 0  13.24999999999999 0 0  13.12499999999898 0.2488402370541932 0  13.37499999999898 0.2488402370541932 0  13.49999999999999 0 0  13.24999999999796 0.4976804741083863 0  13.62499999999898 0.2488402370541932 0  13.49999999999796 0.4976804741083863 0  13.74999999999796 0.4976804741083863 0  13.74999999999999 0 0  13.87499999999898 0.2488402370541932 0  13.99999999999999 0 0  13.37499999999694 0.7465207111625796 0  13.62499999999694 0.7465207111625796 0  13.49999999999593 0.9953609482167727 0  10.99999999999998 0 0  11.24999999999998 0 0  11.12489882952011 0.2493755097330886 0  11.37489882952011 0.2493755097330886 0  11.49999999999998 0 0  11.24979765904023 0.4987510194661772 0  11.62489882952011 0.2493755097330886 0  11.49979765904023 0.4987510194661772 0  11.74979765904023 0.4987510194661772 0  11.74999999999998 0 0  11.87489882952011 0.2493755097330886 0  11.99999999999998 0 0  11.37469648856036 0.7481265291992658 0  11.62469648856036 0.7481265291992658 0  11.49959531808049 0.9975020389323543 0  12.24989882951808 0.9889376432207079 0  12.12489882951573 1.242416932058168 0  11.99979765903888 0.9917924417912567 0  11.99989882951337 1.495896220895628 0  11.87479765903653 1.245271730628717 0  11.74979765903418 1.498751019466177 0  11.87489882951102 1.749375509733089 0  11.74969648855969 0.9946472403618055 0  11.62469648855733 1.248126529199266 0  14.24999999999749 0.9884023705420516 0  14.12499999999572 1.241881659379432 0  13.99999999999697 0.9907218964336253 0  13.99999999999394 1.495360948216813 0  13.87499999999519 1.244201185271006 0  13.74999999999342 1.497680474108386 0  13.87499999999217 1.748840237054193 0  13.74999999999645 0.993041422325199 0  13.62499999999467 1.246520711162579 0  16.24999999999835 0.9884023705423178 0  16.12499999999715 1.241881659379618 0  15.99999999999796 0.9907218964338382 0  15.99999999999596 1.495360948216919 0  15.87499999999676 1.244201185271139 0  15.74999999999557 1.49768047410844 0  15.87499999999477 1.74884023705422 0  15.74999999999757 0.9930414223253587 0  15.62499999999637 1.246520711162659 0  18.24999999999981 0.9089037644725375 0  18.12499999999905 1.192397413526428 0  17.99999999999962 0.9517821251606363 0  17.9999999999983 1.475891062580318 0  17.87499999999887 1.235275774214527 0  17.74999999999812 1.518769423268417 0  17.87499999999755 1.759384711634209 0  17.74999999999944 0.9946604858487351 0  17.62499999999869 1.278154134902626 0  17.12499999999642 1.759384711634209 0  16.99999999999723 1.505905422796908 0  17.24999999999736 1.518769423268417 0  16.87499999999805 1.252426133959607 0  17.12499999999818 1.265290134431116 0  16.99999999999899 1.011810845593816 0  16.74999999999887 0.9989468451223066 0  17.37499999999831 1.278154134902626 0  17.24999999999912 1.024674846065325 0  15.12499999999362 1.74884023705422 0  14.99999999999501 1.495360948216839 0  15.2499999999948 1.49768047410844 0  14.87499999999641 1.241881659379459 0  15.1249999999962 1.244201185271059 0  14.99999999999759 0.9907218964336786 0  14.7499999999978 0.9884023705420782 0  15.37499999999599 1.246520711162659 0  15.24999999999739 0.9930414223252788 0  13.12499999999103 1.748840237054193 0  12.999999999993 1.495360948216733 0  13.24999999999266 1.497680474108386 0  12.87499999999497 1.241881659379273 0  13.12499999999463 1.244201185270926 0  12.99999999999661 0.9907218964334659 0  12.74999999999694 0.9884023705418125 0  13.37499999999429 1.246520711162579 0  13.24999999999627 0.9930414223251193 0  11.12489882950988 1.749375509733089 0  10.99929180664117 1.49910785696908 0  11.24979765903342 1.498751019466177 0  10.87368478377247 1.248840204205072 0  11.12419063616471 1.248483366702169 0  10.998583613296 0.9982157139381606 0  10.74807776090376 0.9985725514410637 0  11.37469648855695 1.248126529199266 0  11.24908946568825 0.9978588764352574 0  16.62499999999905 0.7395621334880981 0  16.87499999999918 0.7524261339596072 0  16.74999999999936 0.4930414223253987 0  16.99999999999949 0.5059054227969079 0  17.12499999999931 0.7652901344311164 0  16.87499999999968 0.2465207111626994 0  18.125 0.2165063509461096 0  17.99999999999981 0.4758910625803182 0  18.25 0.4330127018922193 0  18.12499999999981 0.6923974135264278 0  17.87499999999962 0.7352757742145266 0  18.375 0.649519052838329 0  16.12499999999968 0.2465207111626994 0  15.99999999999897 0.4953609482169191 0  16.24999999999936 0.4930414223253987 0  16.12499999999866 0.7418816593796185 0  15.87499999999827 0.7442011852711389 0  16.37499999999905 0.7395621334880981 0  14.6249999999985 0.7395621334878584 0  14.8749999999983 0.7418816593794588 0  14.749999999999 0.493041422325239 0  14.99999999999879 0.4953609482168393 0  15.12499999999809 0.7442011852710591 0  14.8749999999995 0.2465207111626195 0  14.1249999999995 0.2465207111626195 0  13.99999999999848 0.4953609482168126 0  14.249999999999 0.493041422325239 0  14.12499999999799 0.7418816593794322 0  13.87499999999747 0.7442011852710058 0  14.3749999999985 0.7395621334878584 0  12.62499999999796 0.7395621334876192 0  12.87499999999762 0.7418816593792728 0  12.74999999999864 0.4930414223250795 0  12.9999999999983 0.4953609482167329 0  13.12499999999728 0.744201185270926 0  12.87499999999931 0.2465207111625398 0  12.12499999999931 0.2465207111625398 0  11.99989882951943 0.4958962208956283 0  12.24999999999863 0.4930414223250795 0  12.12489882951876 0.7424169320581682 0  11.87479765903956 0.7452717306287169 0  12.37499999999796 0.7395621334876192 0  10.62317893138363 0.7491970417079751 0  10.87368478377588 0.7488402042050719 0  10.74878595425575 0.4994646944719834 0  10.99929180664799 0.4991078569690803 0  11.12419063616812 0.7484833667021689 0  10.87439297712787 0.2497323472359917 0  19.08563708345907 1.816579429209366 0  18.96063708345945 1.533085780155476 0  19.17127416691965 1.633158858418732 0  18.83563708345983 1.249592131101585 0  19.04627416692003 1.349665209364842 0  18.9212741669204 1.066171560310951 0  18.7106370834602 0.9660984820476949 0  19.25691125038023 1.449738287628098 0  19.13191125038061 1.166
[...]
<PointData  Vectors="t"> 
<DataArray  type="Float64"  Name="t"  NumberOfComponents="3" format="ascii">-7.4033070283513100e-05 4.1131171147621093e-04 4.9406564584124654e-324  -7.6912837866670791e-05 3.9138920311700614e-04 -4.9406564584124654e-324  -6.9074545707470961e-05 4.0586648058326199e-04 0.0000000000000000e+00  -6.5393518964399383e-05 3.9202910817227643e-04 -4.9406564584124654e-324  -7.7905688795917852e-05 3.8129810279400315e-04 0.0000000000000000e+00  -5.8731416710131107e-05 3.8988662765957155e-04 -4.9406564584124654e-324  -6.2582809072083640e-05 3.5529744318074625e-04 0.0000000000000000e+00  -6.2294946566307754e-05 3.7642976644816504e-04 4.9406564584124654e-324  -5.6253119880617740e-05 3.5412887220903817e-04 -4.9406564584124654e-324  -7.3104778261498212e-05 3.6321513210811434e-04 -4.9406564584124654e-324  -6.3587297284149269e-05 3.4652517550250536e-04 4.9406564584124654e-324  -6.4717608580728832e-05 3.3681841176451367e-04 0.0000000000000000e+00  -5.4097933580833361e-05 3.9127025176846479e-04 0.0000000000000000e+00  -5.1508089927201023e-05 3.4967596800459307e-04 0.0000000000000000e+00  -4.9582769193515476e-05 3.7304392864369513e-04 0.0000000000000000e+00  -4.4658358242621615e-05 3.0855543574067636e-04 4.9406564584124654e-324  -3.8056456650681193e-05 3.0581018323162790e-04 -4.9406564584124654e-324  -3.4593562957815420e-05 3.0457006668652934e-04 -4.9406564584124654e-324  -3.4901237369703398e-05 2.9835387238126289e-04 4.9406564584124654e-324  -3.3177037183100285e-05 3.0394451166722807e-04 0.0000000000000000e+00  -2.9789451371509734e-05 2.9867346705098556e-04 4.9406564584124654e-324  -2.8827800228596780e-05 2.9742485495260022e-04 0.0000000000000000e+00  -2.4267126882714628e-05 2.9555905152533465e-04 4.9406564584124654e-324  -2.1611297588361898e-05 2.8418708543215124e-04 4.9406564584124654e-324  -3.3089391640079709e-05 2.9611939039175019e-04 0.0000000000000000e+00  -2.3161674520386974e-05 2.9064768291151970e-04 4.9406564584124654e-324  -2.8454198245039128e-05 2.9282396981984005e-04 4.9406564584124654e-324  -2.3840501044015826e-05 2.8906845067709809e-04 4.9406564584124654e-324  -1.7322157248768637e-05 2.8778432698803032e-04 -4.9406564584124654e-324  -1.3742439133364398e-05 2.8457793584241137e-04 0.0000000000000000e+00  -8.8136719154934186e-06 2.2675710362448308e-04 0.0000000000000000e+00  -1.0052568225090690e-05 2.2509963940728077e-04 4.9406564584124654e-324  -7.4456092181256350e-06 2.2475292586627399e-04 -4.9406564584124654e-324  -7.1725036914260960e-06 2.2407209979754855e-04 0.0000000000000000e+00  -8.8397832399386890e-06 2.2227632722872991e-04 4.9406564584124654e-324  -6.0198988950866062e-06 2.2464530449200302e-04 -4.9406564584124654e-324  -7.8086172387382300e-06 2.2087636837374663e-04 4.9406564584124654e-324  -5.0237574322375892e-06 2.2185369002554627e-04 -4.9406564584124654e-324  -4.4736912779866287e-06 2.2087605600651581e-04 0.0000000000000000e+00  -8.5397291173522897e-06 2.2122976554661778e-04 0.0000000000000000e+00  -7.2856659356624689e-06 2.1898262081726126e-04 0.0000000000000000e+00  -9.9532720303187550e-06 2.1565253380458575e-04 0.0000000000000000e+00  -3.0404077298216195e-06 2.2302300842933477e-04 -4.9406564584124654e-324  -2.2182676806021325e-06 2.1978660385209948e-04 0.0000000000000000e+00  2.2440095487839497e-06 2.2013184852250276e-04 4.9406564584124654e-324  -9.5402284901196878e-06 2.0490743593833515e-04 -4.9406564584124654e-324  -7.1639319586843817e-06 2.0508851973923263e-04 -4.9406564584124654e-324  -8.3627572762051025e-06 2.0664343514611508e-04 -4.9406564584124654e-324  -3.8909809324444199e-06 2.0299410493198567e-04 0.0000000000000000e+00  -1.1807206841686983e-05 2.0087714180398440e-04 4.9406564584124654e-324  3.6195770597983738e-06 1.9790918932476956e-04 0.0000000000000000e+00  6.1968395133101358e-07 1.9233337466239645e-04 4.9406564584124654e-324  2.9394655816843043e-06 1.9577133103179176e-04 0.0000000000000000e+00  7.2958910758043618e-06 1.9049456651601388e-04 -4.9406564584124654e-324  -8.0886828994479018e-06 1.9471973804894576e-04 4.9406564584124654e-324  -1.0076336991559689e-06 1.8732859804183833e-04 -4.9406564584124654e-324  -2.8858720522595169e-06 1.9000138475946105e-04 4.9406564584124654e-324  8.5596407625389709e-06 1.9820732045336287e-04 0.0000000000000000e+00  7.3851068412833465e-06 1.9035603516451112e-04 0.0000000000000000e+00  7.4296717696047652e-06 1.9484666079168638e-04 -4.9406564584124654e-324  -1.1597101892602248e-05 2.4242809862087242e-04 4.9406564584124654e-324  -1.3874137060215387e-05 2.3722985559223090e-04 -4.9406564584124654e-324  -1.2893512189311715e-05 2.3582768021283037e-04 0.0000000000000000e+00  -8.7007193264732894e-06 2.3624515683904178e-04 -4.9406564584124654e-324  -1.2735250795206675e-05 2.3435972453732105e-04 4.9406564584124654e-324  -7.2830799319616085e-06 2.3528843895674815e-04 0.0000000000000000e+00  -9.9058484066018005e-06 2.3137909853684777e-04 0.0000000000000000e+00  -8.2061969557800754e-06 2.3297603166801115e-04 -4.9406564584124654e-324  -6.6074127598841794e-06 2.3152293234568805e-04 0.0000000000000000e+00  -1.0116455385568716e-05 2.3297558493170663e-04 -4.9406564584124654e-324  -9.4636109504332756e-06 2.2978543956686965e-04 0.0000000000000000e+00  -1.0286245459306380e-05 2.3034330206869239e-04 4.9406564584124654e-324  -3.0792630760589236e-06 2.3669105190710698e-04 -4.9406564584124654e-324  -4.4753389368417042e-06 2.3138246402653099e-04 0.0000000000000000e+00  -9.8684953091230034e-07 2.3520536380993023e-04 0.0000000000000000e+00  8.5035322592264375e-06 1.9229335968872486e-04 -4.9406564584124654e-324  7.2800587436152228e-06 1.8878759423222912e-04 4.9406564584124654e-324  6.1431992504077146e-06 1.8818995359566788e-04 0.0000000000000000e+00  6.6025853789630555e-06 1.8903846214681034e-04 0.0000000000000000e+00  5.9146564345211426e-06 1.8674818176690460e-04 -4.9406564584124654e-324  7.3588117990579060e-07 1.8332253197863305e-04 -4.9406564584124654e-324  -1.5661607609738102e-05 2.9012984800496971e-04 -4.9406564584124654e-324  -8.9988020587357749e-06 2.8272347510391527e-04 4.9406564584124654e-324  -2.2330307591206748e-05 2.7898251666155826e-04 -4.9406564584124654e-324  -2.2917184241100869e-05 2.8377428606285075e-04 0.0000000000000000e+00  -6.0980830569358525e-06 2.9218636093091010e-04 4.9406564584124654e-324  -2.4890954817848088e-05 2.8722051533622772e-04 -4.9406564584124654e-324  -2.5170095633022946e-05 2.9812182059913279e-04 -4.9406564584124654e-324  -2.6384230379986240e-05 2.9220534782291600e-04 0.0000000000000000e+00  -2.7798193117778544e-05 2.9936744202281178e-04 -4.9406564584124654e-324  -3.2208249419003489e-06 3.0707252747889263e-04 4.9406564584124654e-324  -1.3018374843592048e-05 3.1025575918735518e-04 -4.9406564584124654e-324  -1.0522804511857757e-05 3.1387075759061584e-04 0.0000000000000000e+00  -2.8856769871320726e-05 2.9009709296402695e-04 4.9406564584124654e-324  -3.1629956692976946e-05 2.9537581261336333e-04 4.9406564584124654e-324  -3.3559558495966557e-05 2.9897037317497911e-04 0.0000000000000000e+00  2.7533159707256155e-06 2.4276168661907526e-04 4.9406564584124654e-324  7.2262071099826182e-07 2.4479680176551024e-04 4.9406564584124654e-324  8.5197705943263156e-07 2.3909058987227786e-04 -4.9406564584124654e-324  -2.0510731765089705e-06 2.4147941845870807e-04 4.9406564584124654e-324  -4.8976916390136232e-06 2.4819907156610157e-04 0.0000000000000000e+00  6.2493386501602424e-07 2.5472858087840122e-04 -4.9406564584124654e-324  -5.2735237259220504e-06 2.5159028220032658e-04 0.0000000000000000e+00  1.9255615834422976e-06 2.5409581267862651e-04 -4.9406564584124654e-324  1.2637136474898175e-06 2.5371034044549334e-04 4.9406564584124654e-324  -5.0426129908897307e-06 2.5193537856729796e-04 4.9406564584124654e-324  -7.3822939347571262e-06 2.5770804649230994e-04 -4.9406564584124654e-324  -5.7485896602551505e-06 2.5550498912601448e-04 -4.9406564584124654e-324  4.6350926318148490e-06 2.4616760768085777e-04 0.0000000000000000e+00  3.4068264692465742e-06 2.5859375872721343e-04 4.9406564584124654e-324  8.2796975214165548e-07 2.5047987875887015e-04 0.0000000000000000e+00  9.7385747631705249e-06 2.2415555574942713e-04 -4.9406564584124654e-324  8.0243903889412832e-06 2.2214896737286611e-04 4.9406564584124654e-324  7.8838012625162034e-06 2.2152706462229187e-04 -4.9406564584124654e-324  8.6036050703488447e-06 2.2369644757832662e-04 -4.9406564584124654e-324  5.9277029720635209e-06 2.3008084744633201e-04 4.9406564584124654e-324  8.3227304704039176e-06 2.2341122997420165e-04 -4.9406564584124654e-324  3.0728143456357163e-06 2.2539611714184841e-04 -4.9406564584124654e-324  5.2480856018513481e-06 2.3043852511962155e-04 -4.9406564584124654e-324  4.8234415329124406e-06 2.3006304313692616e-04 0.0000000000000000e+00  6.2001842040468446e-06 2.2893617685507356e-04 4.9406564584124654e-324  6.5796233400051314e-06 2.2722091708665462e-04 4.9406564584124654e-324  5.0254499748288535e-06 2.3094929241271274e-04 4.9406564584124654e-324  1.8427923038109168e-06 2.2793698254007782e-04 -4.9406564584124654e-324  1.3624512489943250e-06 2.2796381601368680e-04 -4.9406564584124654e-324  -1.4910596067094738e-06 2.3048609679705278e-04 0.0000000000000000e+00  9.8200849939987140e-06 2.0265006774176889e-04 0.0000000000000000e+00  1.0442407423054981e-05 2.0508459631489811e-04 4.9406564584124654e-324  1.0344064607573145e-05 2.0457319058198134e-04 0.0000000000000000e+00  1.0520299777093779e-05 2.0692769162836187e-04 0.0000000000000000e+00  1.0824687050419263e-05 2.0704399217031736e-04 0.0000000000000000e+00  1.0609685103860786e-05 2.0482535475865296e-04 0.0000000000000000e+00  1.1124592201759267e-05 2.0874932804445371e-04 0.0000000000000000e+00  1.0804374752298765e-05 2.0654520872064107e-04 4.9406564584124654e-324  1.0513487500830715e-05 2.0843342117796561e-04 0.0000000000000000e+00  1.2781128806999191e-05 2.0929998347180706e-04 4.9406564584124654e-324  1.0190086129667282e-05 2.1106957775877022e-04 0.0000000000000000e+00  1.1029308475772962e-05 2.1076638652011947e-04 0.0000000000000000e+00  1.0901258518891289e-05 2.0519830268755460e-04 4.9406564584124654e-324  1.1298528061480501e-05 2.0872088593984264e-04 4.9406564584124654e-324  9.8769014681794516e-06 2.0887288778163066e-04 -4.9406564584124654e-324  2.0366383974262888e-06 2.1835337243857674e-04 -4.9406564584124654e-324  -5.4525417900277383e-07 2.1699692530168549e-04 4.9406564584124654e-324  4.0975388004222039e-06 2.1078792835640137e-04 0.0000000000000000e+00  -3.6556178419985121e-06 2.1507898984977309e-04 -4.9406564584124654e-324  1.3005297544690278e-06 2.1555892139466065e-04 0.0000000000000000e+00  -2.9839985747999555e-06 2.1399614592786060e-04 0.0000000000000000e+00  -6.4970601171294996e-06 2.1814691061882707e-04 0.0000000000000000e+00  7.1288803507371437e-06 2.1017578474319265e-04 -4.9406564584124654e-324  3.0671850853218552e-06 2.1056229188312888e-04 4.9406564584124654e-324  -1.2396529605098097e-06 2.3075190685641514e-04 0.0000000000000000e+00  -4.7691993042546571e-06 2.2928979981995010e-04 -4.9406564584124654e-324  -1.8626695228489218e-06 2.2924726402111120e-04 4.9406564584124654e-324  -7.2241501484580638e-06 2.2912633629529081e-04 -4.9406564584124654e-324  -4.0678554194411718e-06 2.2990795572423828e-04 4.9406564584124654e-324  -6.9202236972190861e-06 2.2907566539411795e-04 -4.9406564584124654e-324  -8.1478752700678616e-06 2.3047182378309452e-04 0.0000000000000000e+00  -1.1915022239822874e-06 2.2916337360048928e-04 0.0000000000000000e+00  -4.7480320337856872e-06 2.2801389988855392e-04 4.9406564584124654e-324  -1.1449526657432143e-05 2.7550428277775985e-04 4.9406564584124654e-324  -1.0320615307784319e-05 2.8133208140582758e-04 0.0000000000000000e+00  -5.3586725638989660e-06 2.7580538875316264e-04 0.0000000000000000e+00  -1.6487060655081686e-05 2.8587929023947515e-04 -4.9406564584124654e-324  -7.9575018592795011e-06 2.6783764849506547e-04 4.9406564584124654e-324  -9.6490137316279244e-06 2.7236349569871864e-04 0.0000000000000000e+00  -1.9904073061945665e-05 2.7577365235589293e-04 4.9406564584124654e-324  1.2263832667100104e-06 2.6126127863263822e-04 0.0000000000000000e+00  -2.4615550902397783e-06 2.6632450723934473e-04 0.0000000000000000e+00  -4.3073959185855592e-05 3.4758946531550573e-04 -4.9406564584124654e-324  -5.3860291436187516e-05 3.3837308084375145e-04 4.9406564584124654e-324  -4.5872100680952762e-05 3.1637657132439772e-04 4.9406564584124654e-324  -5.1794564476212686e-05 3.2396957089178709e-04 -4.9406564584124654e-324  -4.6416794739616487e-05 3.2082485415068214e-04 0.0000000000000000e+00  -5.1681844674764312e-05 3.2015808344652000e-04 0.0000000000000000e+00  -5.6969217841887801e-05 3.3149916810931284e-04 4.9406564584124654e-324  -4.4000636434925525e-05 3.0884867412421464e-04 0.0000000000000000e+00  -4.3177352916179025e-05 3.0560508663426934e-04 -4.9406564584124654e-324  -4.0465073856501792e-05 3.0650732360517773e-04 -4.9406564584124654e-324  -3.7484099071084238e-05 2.9995087703325781e-04 0.0000000000000000e+00  -3.7346322706698696e-05 3.0252093485375872e-04 0.0000000000000000e+00  -2.5545181788015990e-05 2.9575296461598841e-04 -4.9406564584124654e-324  -3.0936855270337513e-05 2.9896815889745871e-04 -4.9406564584124654e-324  -2.8616966050116416e-05 2.9163957364203497e-04 0.0000000000000000e+00  -2.0747881765094883e-05 2.8984528473129811e-04 0.0000000000000000e+00  -4.1188391543961918e-05 3.0130308298778152e-04 -4.9406564584124654e-324  -3.0024281380390704e-05 2.9281486399506459e-04 0.0000000000000000e+00  -1.1457747121166402e-05 2.4147068678631042e-04 4.9406564584124654e-324  -4.5602217754660120e-06 2.4112987110249930e-04 4.9406564584124654e-324  -6.4658478166811617e-06 2.4467385085110831e-04 4.9406564584124654e-324  -3.1414830120730296e-06 2.3826586292024447e-04 -4.9406564584124654e-324  -4.0367278720235680e-06 2.4024178328790945e-04 4.9406564584124654e-324  -7.8847601287906367e-07 2.4103469134403860e-04 -4.9406564584124654e-324  -1.4237812201292836e-06 2.3598783432608663e-04 -4.9406564584124654e-324  -1.2532941208206040e-07 2.4496754899593656e-04 -4.9406564584124654e-324  5.1144820397892798e-07 2.4833956582954677e-04 0.0000000000000000e+00  -8.0464053438277072e-06 2.2893145637954557e-04 4.9406564584124654e-324  -6.1926983353249587e-06 2.2647666923557712e-04 0.0000000000000000e+00  -6.4592724365006656e-06 2.2673700473114998e-04 4.9406564584124654e-324  -3.4254635294331445e-06 2.2382068742449310e-04 0.0000000000000000e+00  -4.1998247991865716e-06 2.2860383252215581e-04 4.9406564584124654e-324  -1.2738557486512089e-06 2.2545253740885449e-04 0.0000000000000000e+00  1.3998291076098222e-08 2.2288574494091386e-04 0.0000000000000000e+00  -4.4631478325277053e-06 2.2808411602537229e-04 -4.9406564584124654e-324  -1.6197490355451466e-06 2.2585892065679942e-04 0.0000000000000000e+00  -9.0078267943830918e-06 2.0369116297467728e-04 4.9406564584124654e-324  -1.4899776554537668e-06 2.0264981332772359e-04 0.0000000000000000e+00  -1.6704909240209404e-06 2.0413772077902722e-04 0.0000000000000000e+00  6.4331495428077431e-06 1.9886573927399033e-04 4.9406564584124654e-324  9.5176555674519275e-06 2.0284019882672511e-04 -4.9406564584124654e-324  9.2433648295893813e-06 1.9973745980133670e-04 -4.9406564584124654e-324  9.6807381998406926e-06 1.9704956320830807e-04 4.9406564584124654e-324  4.2144382206392261e-06 2.0846712917030316e-04 4.9406564584124654e-324  1.0109388352336493e-05 2.0178983360353498e-04 0.0000000000000000e+00  -2.0299459750402062e-05 2.7809774511591774e-04 0.0000000000000000e+00  -1.9888905041412019e-05 2.8592828837713230e-04 -4.9406564584124654e-324  -1.4203379247651378e-05 2.8231988492624584e-04 -4.9406564584124654e-324  -2.3812529727800634e-05 2.8808156999914628e-04 0.0000000000000000e+00  -2.1826709715294598e-05 2.9010319882470035e-04 -4.9406564584124654e-324  -9.0130528726057263e-06 2.7424806731177654e-04 0.0000000000000000e+00  -1.1037159396500530e-05 3.3086667948794619e-04 -4.9406564584124654e-324  -2.6810883823945226e-05 3.0767933129267677e-04 -4.9406564584124654e-324  -1.7243041941488481e-05 3.4092259934082151e-04 4.9406564584124654e-324  -4.1088530022925841e-05 3.3434257461190597e-04 4.9406564584124654e-324  -2.9224334692551682e-05 3.0848534107639082e-04 -4.9406564584124654e-324  -4.2045631674897280e-05 3.4616490588762738e-04 4.9406564584124654e-324  -6.4402204442120181e-06 2.6147835089757873e-04 4.9406564584124654e-324  -3.9139077391359438e-06 2.6083353231254813e-04 4.9406564584124654e-324  -1.1008258021866184e-05 2.6749370844712599e-04 0.0000000000000000e+00  -3.7647805034171100e-06 2.6900811661643645e-04 0.0000000000000000e+00  -1.1421145822778391e-06 2.6183457148182845e-04 4.9406564584124654e-324  -1.1808370163221228e-05 2.7568642113689757e-04 0.0000000000000000e+00  1.3992330107698953e-06 2.3473070424447006e-04 0.0000000000000000e+00  -4.4646421125262140e-07 2.3880001643637448e-04 4.9406564584124654e-324  3.0028499961539084e-06 2.3449639318713202e-04 0.0000000000000000e+00  3.2953525633009455e-06 2.4366819935323523e-04 0.0000000000000000e+00  1.1936680115581416e-06 2.4299613211854179e-04 0.0000000000000000e+00  3.1014279867670973e-06 2.3720000736636258e-04 -4.9406564584124654e-324  3.4464073780627465e-06 2.2885624940163763e-04 0.0000000000000000e+00  2.6379465660059601e-06 2.3047444886401870e-04 -4.9406564584124654e-324  3.4625956284195535e-06 2.3074038070087499e-04 0.0000000000000000e+00  3.2226876944807553e-06 2.2889941551691115e-04 4.9406564584124654e-324  1.9998903033083244e-06 2.2946546442990785e-04 0.0000000000000000e+00  1.8900076600893363e-06 2.3350599073470205e-04 0.0000000000000000e+00  5.0153186838921292e-06 2.2013437585328684e-04 4.9406564584124654e-324  3.5166627896331450e-06 2.2105107422293186e-04 4.9406564584124654e-324  1.1426466624355819e-05 2.1901336144871156e-04 4.9406564584124654e-324  9.5632594777194451e-06 2.2335814167440750e-04 -4.9406564584124654e-324  2.1549043464895615e-06 2.2851588810405787e-04 4.9406564584124654e-324  1.1501444876301495e-05 2.1958233153412897e-04 0.0000000000000000e+00  1.1858680446968262e-05 2.1348006578142981e-04 0.0000000000000000e+00  1.2172459443192948e-05 2.0994098672892552e-04 4.9406564584124654e-324  1.1540797176894877e-05 2.1337848901341994e-04 4.9406564584124654e-324  1.1698586607926954e-05 2.1377033257016038e-04 -4.9406564584124654e-324  1.1343074429046513e-05 2.1102270849422742e-04 4.9406564584124654e-324  7.6927433589221792e-06 2.1755122663072782e-04 0.0000000000000000e+00  8.3277316609931258e-06 1.9592631812720166e-04 4.9406564584124654e-324  9.7497408137868417e-06 2.0069723989827538e-04 4.9406564584124654e-324  7.6884817376946131e-06 2.0038129035325540e-04 -4.9406564584124654e-324  1.0361217976235348e-05 2.0261831952879506e-04 0.0000000000000000e+00  1.0218256492305369e-05 2.0254554501377662e-04 0.0000000000000000e+00  9.2272546947571093e-06 1.9999347021067401e-04 -4.9406564584124654e-324  -6.8300441621817057e-05 4.1566118129371502e-04 0.0000000000000000e+00  -5.9856079183859384e-05 4.1351420937422149e-04 -4.9406564584124654e-324  -6.3169618059507238e-05 4.2571742167287358e-04 -4.9406564584124654e-324  -5.6530700840029188e-05 4.0908356383074655e-04 -4.9406564584124654e-324  -5.1736610675459081e-05 4.2048584869616002e-04 4.9406564584124654e-324  -5.5824480015281687e-05 4.0582345442743474e-04 -4.9406564584124654e-324  -4.2692714717932641e-05 3.9308954544427135e-04 0.0000000000000000e+00  -5.9336437637217077e-05 4.2484770601626401e-04 4.9406564584124654e-324  -5.7288646733885573e-05 4.2295359218766701e-04 0.0000000000000000e+00  -5.3707047589193416e-05 4.2553427959861681e-04 4.9406564584124654e-324  -1.1267304530804053e-05 2.1343439442593731e-04 0.0000000000000000e+00  -6.4680761090267497e-06 2.1124254355296758e-04 -4.9406564584124654e-324  -1.1557457306529921e-05 2.1173834065909593e-04 0.0000000000000000e+00  -9.4293987678302297e-06 2.0778470102176456e-04 -4.9406564584124654e-324  -1.5912880467444998e-06 2.1345274392039045e-04 4.9406564584124654e-324  -8.4121197338583838e-06 2.0488949750001095e-04 4.9406564584124654e-324  -9.3444817266028241e-06 2.2989535943813595e-04 -4.9406564584124654e-