<?xml version="1.0"?>
<VTKFile type="UnstructuredGrid"  version="0.1"  >
<UnstructuredGrid>
<Piece  NumberOfPoints="392" NumberOfCells="686">
<Points>
<DataArray  type="Float64"  NumberOfComponents="3"  format="ascii">3.999999999999964 0 0  4.249999999999965 0 0  4.124999999998478 0.2534792888374535 0  4.374999999998479 0.2534792888374535 0  4.499999999999966 0 0  4.249999999996992 0.506958577674907 0  4.624999999998479 0.2534792888374535 0  4.499999999996993 0.506958577674907 0  4.749999999996994 0.506958577674907 0  4.749999999999967 0 0  4.874999999998481 0.2534792888374535 0  4.999999999999968 0 0  4.374999999995506 0.7604378665123606 0  4.624999999995506 0.7604378665123606 0  4.499999999994019 1.013917155349814 0  5.99999999999997 0 0  6.249999999999971 0 0  6.124999999997403 0.2534792888376092 0  6.374999999997405 0.2534792888376092 0  6.499999999999972 0 0  6.249999999994837 0.5069585776752185 0  6.624999999997405 0.2534792888376092 0  6.499999999994838 0.5069585776752185 0  6.749999999994839 0.5069585776752185 0  6.749999999999972 0 0  6.874999999997407 0.2534792888376092 0  6.999999999999973 0 0  6.374999999992271 0.7604378665128277 0  6.624999999992271 0.7604378665128277 0  6.499999999989704 1.013917155350437 0  1.999999999999982 0 0  2.24999999999998 0 0  2.12499999999946 0.2613818370536612 0  2.374999999999459 0.2613818370536612 0  2.499999999999979 0 0  2.249999999998939 0.5227636741073225 0  2.624999999999457 0.2613818370536612 0  2.499999999998937 0.5227636741073225 0  2.749999999998935 0.5227636741073225 0  2.749999999999977 0 0  2.874999999999455 0.2613818370536612 0  2.999999999999975 0 0  2.374999999998417 0.7841455111609837 0  2.624999999998415 0.7841455111609837 0  2.499999999997895 1.045527348214645 0  1.999999999998379 2 0  1.74999999999856 2 0  1.874999999998781 1.716506350946107 0  1.624999999998962 1.716506350946107 0  1.499999999998741 2 0  1.749999999999184 1.433012701892215 0  1.374999999999143 1.716506350946107 0  1.499999999999365 1.433012701892215 0  1.249999999999545 1.433012701892215 0  1.249999999998922 2 0  1.124999999999324 1.716506350946107 0  0.9999999999991025 2 0  1.624999999999586 1.149519052838322 0  1.374999999999767 1.149519052838322 0  1.499999999999988 0.8660254037844294 0  7.999999999999975 0 0  8.249999999999975 0 0  8.124690294450405 0.261918262795331 0  8.374690294450405 0.261918262795331 0  8.499999999999975 0 0  8.249380588900834 0.523836525590662 0  8.624690294450405 0.261918262795331 0  8.499380588900834 0.523836525590662 0  8.749380588900834 0.523836525590662 0  8.749999999999975 0 0  8.874690294450406 0.261918262795331 0  8.999999999999977 0 0  8.374070883351264 0.785754788385993 0  8.624070883351264 0.785754788385993 0  8.498761177801693 1.047673051181324 0  9.998243232147571 1.493352101097468 0  9.747700510046972 1.487239507722953 0  9.872093487178645 1.236971854958944 0  9.873850255015896 1.743619753861476 0  9.996486464310319 0.986704202194936 0  9.74594374220972 0.9805916088204207 0  9.621550765078046 1.230859261584429 0  9.495401020109121 0.9744790154459053 0  9.999999999984821 2 0  9.749999999984439 2 0  9.623850255015515 1.743619753861476 0  9.499999999984059 2 0  9.373850255015135 1.743619753861476 0  9.497700510046592 1.487239507722953 0  9.24770051004621 1.487239507722953 0  9.249999999983679 2 0  9.123850255014755 1.743619753861476 0  8.999999999983299 2 0  9.371550765077664 1.230859261584429 0  3.999999999993654 2 0  3.749999999994383 2 0  3.874999999994342 1.744460791439874 0  3.624999999995071 1.744460791439874 0  3.499999999995112 2 0  3.74999999999503 1.488921582879748 0  3.3749999999958 1.744460791439874 0  3.499999999995759 1.488921582879748 0  3.249999999996488 1.488921582879748 0  3.249999999995841 2 0  3.124999999996529 1.744460791439874 0  2.99999999999657 2 0  3.624999999995718 1.233382374319621 0  3.374999999996447 1.233382374319621 0  3.499999999996406 0.9778431657594949 0  5.99999999998782 2 0  5.74999999998855 2 0  5.87499999998929 1.751159762945844 0  5.62499999999002 1.751159762945844 0  5.499999999989278 2 0  5.749999999990761 1.502319525891687 0  5.374999999990749 1.751159762945844 0  5.49999999999149 1.502319525891687 0  5.24999999999222 1.502319525891687 0  5.249999999990007 2 0  5.124999999991478 1.751159762945844 0  4.999999999990736 2 0  5.624999999992232 1.253479288837531 0  5.37499999999296 1.253479288837531 0  5.499999999993702 1.004639051783375 0  7.999999999982053 2 0  7.749999999982765 2 0  7.874963130275843 1.744524651647608 0  7.624963130276555 1.744524651647608 0  7.499999999983477 2 0  7.749926260569634 1.489049303295215 0  7.374963130277267 1.744524651647608 0  7.499926260570346 1.489049303295215 0  7.249926260571058 1.489049303295215 0  7.24999999998419 2 0  7.12496313027798 1.744524651647608 0  6.999999999984902 2 0  7.624889390863425 1.233573954942823 0  7.374889390864137 1.233573954942823 0  7.499852521157216 0.9780986065904302 0  6.749963130281582 1.004962518160435 0  6.874963130284149 0.751483229322826 0  6.99992626057346 0.9960078809704336 0  6.999963130286717 0.4980039404852168 0  7.124926260576027 0.7425285921328244 0  7.249926260578595 0.4890493032952151 0  7.124963130289284 0.2445246516476076 0  7.249889390865338 0.9870532437804319 0  7.374889390867905 0.7335739549428226 0  4.74999999999394 1.011597629458204 0  4.874999999995428 0.7581183406207508 0  4.999999999993861 1.009278103566595 0  4.999999999996914 0.5046390517832973 0  5.124999999995348 0.755798814729141 0  5.249999999996835 0.5023195258916875 0  5.124999999998401 0.2511597629458437 0  5.249999999993781 1.006958577674985 0  5.374999999995268 0.7534792888375312 0  2.749999999997523 1.028606302600858 0  2.874999999998043 0.7672244655471963 0  2.999999999997151 1.01168525698707 0  2.999999999998563 0.505842628493535 0  3.124999999997671 0.7503034199334088 0  3.249999999998191 0.4889215828797475 0  3.124999999999083 0.2444607914398737 0  3.249999999996779 0.9947642113732824 0  3.374999999997298 0.7333823743196212 0  3.874999999999075 0.2444607914398737 0  3.999999999997589 0.4979400802773273 0  3.749999999998185 0.4889215828797475 0  4.124999999996103 0.7514193691147808 0  3.874999999996699 0.742400871717201 0  3.999999999995213 0.9958801605546546 0  4.249999999994616 1.004898657952234 0  3.624999999997295 0.7333823743196212 0  3.74999999999581 0.9868616631570748 0  5.874999999998403 0.2511597629458437 0  5.999999999995836 0.5046390517834529 0  5.749999999996836 0.5023195258916875 0  6.124999999993269 0.7581183406210621 0  5.874999999994269 0.7557988147292967 0  5.999999999991703 1.009278103566906 0  6.249999999990703 1.011597629458671 0  5.62499999999527 0.7534792888375312 0  5.749999999992703 1.00695857767514 0  7.874963130289285 0.2445246516476076 0  7.999653424739715 0.5064429144429385 0  7.749926260578595 0.4890493032952151 0  8.124343719190144 0.7683611772382695 0  7.874616555029025 0.7509675660905462 0  7.999306849479455 1.012885828885877 0  8.249034013640575 1.0302794400336 0  7.624889390867906 0.7335739549428226 0  7.749579685318335 0.9954922177381537 0  1.874999999999984 0.2165063509461073 0  1.999999999999462 0.4778881879997686 0  1.749999999999985 0.4330127018922147 0  2.12499999999894 0.7392700250534299 0  1.874999999999463 0.694394538945876 0  1.999999999998942 0.9557763759995372 0  2.249999999998418 1.000651862107091 0  1.624999999999986 0.649519052838322 0  1.749999999999465 0.9109008898919833 0  2.374999999998016 1.284145511160984 0  2.124999999998539 1.23927002505343 0  2.249999999998137 1.522763674107322 0  1.99999999999866 1.477888187999769 0  1.874999999999063 1.194394538945876 0  2.124999999998258 1.761381837053661 0  8.747921138378551 1.029374542247469 0  8.87323084392812 0.7674562794521382 0  8.997081098955407 1.011076033313615 0  8.998540549477692 0.5055380166568073 0  9.122390804504978 0.7491577705182837 0  9.24770051005455 0.4872395077229527 0  9.123850255027264 0.2436197538614763 0  9.246241059532263 0.99277752437976 0  9.371550765081835 0.7308592615844289 0  2.874999999996901 1.761381837053661 0  2.99999999999686 1.505842628493535 0  2.749999999997232 1.522763674107322 0  2.874999999997192 1.267224465547196 0  3.124999999996819 1.250303419933409 0  2.624999999997564 1.284145511160984 0  4.374999999993928 1.260437866512361 0  4.124999999994524 1.251419369114781 0  4.249999999993836 1.506958577674907 0  3.999999999994433 1.497940080277327 0  3.874999999995121 1.242400871717201 0  4.124999999993745 1.753479288837454 0  4.874999999991557 1.753479288837454 0  4.999999999992299 1.504639051783297 0  4.749999999992378 1.506958577674907 0  4.874999999993119 1.258118340620751 0  5.12499999999304 1.255798814729141 0  4.624999999993198 1.260437866512361 0  6.374999999989234 1.260437866512828 0  6.124999999990233 1.258118340621062 0  6.249999999988763 1.506958577675218 0  5.999999999989762 1.504639051783453 0  5.874999999991232 1.255798814729297 0  6.124999999988292 1.753479288837609 0  6.874999999986102 1.753479288837609 0  6.99996313027918 1.498003940485217 0  6.749999999987303 1.506958577675218 0  6.874963130280381 1.251483229322826 0  7.124926260572259 1.242528592132824 0  6.624999999988503 1.260437866512828 0  8.374070883346782 1.285754788385993 0  8.124343719185664 1.268361177238269 0  8.249380588891873 1.523836525590662 0  7.999653424730753 1.506442914442939 0  7.874616555024544 1.250967566090546 0  8.124690294436963 1.761918262795331 0  8.874690294437897 1.761918262795331 0  8.998540549469354 1.505538016656807 0  8.749380588892496 1.523836525590662 0  8.873230843923952 1.267456279452138 0  9.122390804500808 1.249157770518284 0  8.624070883347095 1.285754788385993 0  1.289362916539685 0.9660984820476399 0  1.164362916539464 1.249592131101533 0  1.078725833079383 1.066171560310851 0  1.039362916539243 1.533085780155425 0  0.9537258330791614 1.349665209364743 0  0.82872583307894 1.633158858418636 0  0.9143629165390212 1.816579429209318 0  0.8680887496190801 1.166244638574061 0  0.7430887496188587 1.449738287627954 0  0.
[...]
<PointData  Vectors="t"> 
<DataArray  type="Float64"  Name="t"  NumberOfComponents="3" format="ascii">-2.3312358362329246e-07 1.0302558158476298e-04 -4.9406564584124654e-324  -3.2948518739648387e-07 1.0596431071534496e-04 4.9406564584124654e-324  -3.9088367337912681e-07 1.0482400653290106e-04 4.9406564584124654e-324  -5.1138084849317908e-07 1.0800514865593499e-04 -4.9406564584124654e-324  -5.0990131143602172e-07 1.0926355586007847e-04 -4.9406564584124654e-324  -5.2903822732487409e-07 1.0660503371614450e-04 -4.9406564584124654e-324  -7.1277182947715638e-07 1.1102887036883435e-04 4.9406564584124654e-324  -7.2078615194028407e-07 1.0955170635256766e-04 4.9406564584124654e-324  -9.1941322578645627e-07 1.1219744476984596e-04 -4.9406564584124654e-324  -7.3620328020909133e-07 1.1229572794367721e-04 -4.9406564584124654e-324  -1.0070170471948965e-06 1.1368657018168649e-04 -4.9406564584124654e-324  -9.7000749027855683e-07 1.1521564142685556e-04 4.9406564584124654e-324  -7.1825388066615759e-07 1.0844976923028206e-04 4.9406564584124654e-324  -9.6482295257654239e-07 1.1151900240303323e-04 0.0000000000000000e+00  -9.3789541046321598e-07 1.1031944762991633e-04 4.9406564584124654e-324  -2.6794549301165336e-06 1.2847866791610042e-04 0.0000000000000000e+00  -3.0971328700343594e-06 1.3235569626578284e-04 4.9406564584124654e-324  -3.5877820010682493e-06 1.3059528454198384e-04 4.9406564584124654e-324  -4.3122999767008470e-06 1.3455182845719901e-04 0.0000000000000000e+00  -3.3601051034589959e-06 1.3652173390965415e-04 0.0000000000000000e+00  -4.8809225146351513e-06 1.3367609919024003e-04 4.9406564584124654e-324  -5.1311358280086870e-06 1.3872049420367462e-04 -4.9406564584124654e-324  -6.0770280405157182e-06 1.3795935245205642e-04 -4.9406564584124654e-324  -7.3096947908499192e-06 1.4218121960456900e-04 4.9406564584124654e-324  -3.3084917185249516e-06 1.4096161268056207e-04 4.9406564584124654e-324  -6.0065474445386288e-06 1.4334059137411845e-04 -4.9406564584124654e-324  -2.9588852073772519e-06 1.4531386569680742e-04 0.0000000000000000e+00  -5.5186003468818165e-06 1.3687022852943079e-04 4.9406564584124654e-324  -5.8585651122900518e-06 1.4099895854490286e-04 0.0000000000000000e+00  -2.5515723884240370e-06 1.3842652778068394e-04 4.9406564584124654e-324  4.5639331785436697e-07 6.4490768579625793e-05 -4.9406564584124654e-324  3.9709328336698387e-07 7.0612377563057771e-05 4.9406564584124654e-324  2.4174451836730204e-07 6.7602932113471336e-05 0.0000000000000000e+00  1.8716645755523342e-07 7.3523799640615951e-05 0.0000000000000000e+00  3.3261362324757457e-07 7.6336483373697076e-05 4.9406564584124654e-324  3.7009160881186218e-08 7.0655552625381647e-05 4.9406564584124654e-324  1.3348619119803264e-07 7.9056928383517411e-05 -4.9406564584124654e-324  -9.5091222864687118e-09 7.6383701707916047e-05 4.9406564584124654e-324  -5.3089741956908249e-08 8.1732272571739183e-05 0.0000000000000000e+00  2.6731305088660694e-07 8.1682035453395585e-05 0.0000000000000000e+00  7.9309905233083469e-08 8.4219909404940785e-05 4.9406564584124654e-324  2.0085589056623285e-07 8.6666086165275530e-05 -4.9406564584124654e-324  -1.5711889221499742e-07 7.3608050988738409e-05 4.9406564584124654e-324  -1.9542273914679440e-07 7.9147071063599862e-05 0.0000000000000000e+00  -3.4410600638862268e-07 7.6466973367159493e-05 4.9406564584124654e-324  -9.3950301346137153e-07 6.4791591916875591e-05 4.9406564584124654e-324  -9.1169398437448214e-07 5.8272473318598054e-05 -4.9406564584124654e-324  -7.1187564195280053e-07 6.1572919957784646e-05 -4.9406564584124654e-324  -6.6980731003885729e-07 5.4844038501160565e-05 4.9406564584124654e-324  -8.8147615434239470e-07 5.1336591964780638e-05 -4.9406564584124654e-324  -4.8648571152840432e-07 5.8216895971035021e-05 4.9406564584124654e-324  -6.2845468916811789e-07 4.7685324809497348e-05 0.0000000000000000e+00  -4.4045008051948121e-07 5.1264012204604036e-05 -4.9406564584124654e-324  -4.1754440136315039e-07 4.3867606787060382e-05 0.0000000000000000e+00  -8.5579390264786504e-07 4.3956316311107011e-05 4.9406564584124654e-324  -6.1648840748624194e-07 4.0065677278957015e-05 4.9406564584124654e-324  -8.7130148444494091e-07 3.6043519567491766e-05 -4.9406564584124654e-324  -2.7919757813103511e-07 5.4748437858450369e-05 -4.9406564584124654e-324  -2.5115309048556090e-07 4.7571585628006872e-05 0.0000000000000000e+00  -5.8079506170254657e-08 5.1219745907309597e-05 4.9406564584124654e-324  2.1487286846618196e-06 1.7196656367078313e-04 -4.9406564584124654e-324  3.9031741471263177e-06 1.7411895969102691e-04 -4.9406564584124654e-324  1.1730823135102712e-06 1.7035510296414591e-04 4.9406564584124654e-324  3.1460524905691101e-06 1.7260692993849278e-04 -4.9406564584124654e-324  5.0207937238545017e-06 1.7592301083659456e-04 4.9406564584124654e-324  1.9565445724451138e-06 1.6957415538040128e-04 4.9406564584124654e-324  5.3759512222883429e-06 1.7498001295614463e-04 4.9406564584124654e-324  3.2020957552013221e-06 1.7215025936699420e-04 4.9406564584124654e-324  4.4206701252211559e-06 1.7506994695785474e-04 0.0000000000000000e+00  6.5434636204678018e-06 1.7817347415021559e-04 4.9406564584124654e-324  5.7883800191268169e-06 1.7720701937716673e-04 4.9406564584124654e-324  9.0508716667428593e-06 1.8100264314456423e-04 -4.9406564584124654e-324  2.0319221232121753e-06 1.6937019957635673e-04 -4.9406564584124654e-324  3.6609797351734377e-06 1.7271628589560654e-04 4.9406564584124654e-324  2.0759452352881807e-06 1.6910304212552110e-04 0.0000000000000000e+00  6.6025853789630555e-06 1.8903846214681034e-04 0.0000000000000000e+00  5.4936482387292099e-06 1.8633687972363088e-04 -4.9406564584124654e-324  5.9146564345211426e-06 1.8674818176690460e-04 -4.9406564584124654e-324  7.3588117990579060e-07 1.8332253197863305e-04 -4.9406564584124654e-324  6.1431992504077146e-06 1.8818995359566788e-04 0.0000000000000000e+00  5.7856105837881515e-06 1.8633904465904154e-04 -4.9406564584124654e-324  5.0770289542976394e-06 1.8397084066936335e-04 4.9406564584124654e-324  4.5494612979372588e-06 1.8285480055756334e-04 4.9406564584124654e-324  -2.8858720522595169e-06 1.9000138475946105e-04 4.9406564584124654e-324  -1.9903593740152236e-06 1.8716307118811493e-04 -4.9406564584124654e-324  1.0408987198862268e-06 1.8090524124233422e-04 4.9406564584124654e-324  4.7919865874089358e-07 1.8325563605056094e-04 4.9406564584124654e-324  9.0907590632738211e-07 1.8153646085799940e-04 0.0000000000000000e+00  4.5184872065353608e-06 1.8341174463934066e-04 4.9406564584124654e-324  3.8756229875705778e-06 1.7658531015891544e-04 -4.9406564584124654e-324  -9.8991284083798603e-07 1.7695874211120312e-04 -4.9406564584124654e-324  3.3116614054061524e-06 1.7690314139284257e-04 -4.9406564584124654e-324  -2.7015385331830847e-06 1.7403496912572010e-04 -4.9406564584124654e-324  3.9519783262455607e-06 1.8086471705216901e-04 0.0000000000000000e+00  -1.2080835595258763e-06 1.0381685833461653e-04 -4.9406564584124654e-324  -1.1210229352196839e-06 9.9976503889449351e-05 -4.9406564584124654e-324  -1.0279190985212179e-06 1.0191539745663526e-04 -4.9406564584124654e-324  -9.5177835648411277e-07 9.7960569264246070e-05 4.9406564584124654e-324  -1.0625940584223743e-06 9.5894009057657063e-05 0.0000000000000000e+00  -8.2905582474201842e-07 9.9897438610184382e-05 0.0000000000000000e+00  -8.9951330928062130e-07 9.3744110074636745e-05 4.9406564584124654e-324  -7.6673547884880743e-07 9.5837051890852086e-05 0.0000000000000000e+00  -7.2335464958878896e-07 9.1490839392508727e-05 4.9406564584124654e-324  -1.0251250886348765e-06 9.1533752432606611e-05 0.0000000000000000e+00  -8.6388577686137805e-07 8.9234377204337392e-05 0.0000000000000000e+00  -1.0013354531846144e-06 8.6866948753055792e-05 -4.9406564584124654e-324  -6.2917458034022048e-07 9.7840572797316033e-05 0.0000000000000000e+00  -5.8012838454943767e-07 9.3657156563158394e-05 -4.9406564584124654e-324  -4.4468400159115064e-07 9.5737489441690242e-05 4.9406564584124654e-324  -2.5934415681493303e-06 1.3159201772072859e-04 0.0000000000000000e+00  -2.5196525545155485e-06 1.2811911584170976e-04 -4.9406564584124654e-324  -2.4995302061916116e-06 1.2985361007133802e-04 -4.9406564584124654e-324  -2.3797817908463679e-06 1.2635621425616971e-04 -4.9406564584124654e-324  -2.3691038498633390e-06 1.2462899550734323e-04 -4.9406564584124654e-324  -2.4404273947133140e-06 1.2798690931501623e-04 -4.9406564584124654e-324  -2.1877061578825702e-06 1.2287143754121911e-04 0.0000000000000000e+00  -2.2633288673253926e-06 1.2441865422545460e-04 0.0000000000000000e+00  -2.0166807073520389e-06 1.2091153790894290e-04 -4.9406564584124654e-324  -2.1629073746875247e-06 1.2116901050884526e-04 -4.9406564584124654e-324  -1.9530707760892754e-06 1.1943178606384340e-04 0.0000000000000000e+00  -1.9310151372498014e-06 1.1775246109702641e-04 -4.9406564584124654e-324  -2.3622415355547698e-06 1.2596654007141406e-04 0.0000000000000000e+00  -2.1627601144420007e-06 1.2235600133241625e-04 4.9406564584124654e-324  -2.2702747346490175e-06 1.2334726911425193e-04 0.0000000000000000e+00  -3.3885871644268340e-06 1.5841817616753069e-04 4.9406564584124654e-324  -3.1943736381920522e-06 1.5674810542687969e-04 0.0000000000000000e+00  4.4433915721782165e-07 1.6103403764376753e-04 0.0000000000000000e+00  -3.7483928416719746e-07 1.5520855703580314e-04 4.9406564584124654e-324  -2.5838347939481404e-06 1.5634558756192645e-04 -4.9406564584124654e-324  4.6026503376858229e-08 1.5797390224227422e-04 0.0000000000000000e+00  -1.4039444238181708e-06 1.4885886135565082e-04 -4.9406564584124654e-324  -6.3001858828858168e-07 1.5369810845042607e-04 4.9406564584124654e-324  -1.0212978508686286e-06 1.4932738985572207e-04 4.9406564584124654e-324  -1.8587310638503855e-06 1.4582445166302389e-04 0.0000000000000000e+00  -1.3405751905200892e-06 1.4646501997819507e-04 -4.9406564584124654e-324  -1.7255750207020648e-06 1.4379521791568585e-04 4.9406564584124654e-324  7.6548817888413647e-08 1.5622037100877551e-04 -4.9406564584124654e-324  -5.8501563864370299e-07 1.5194668786033464e-04 -4.9406564584124654e-324  7.6082270764561590e-09 1.5523063752383298e-04 -4.9406564584124654e-324  -2.2227979748393345e-06 1.4101733391696454e-04 0.0000000000000000e+00  -5.9170210127074689e-06 1.4511607422240680e-04 0.0000000000000000e+00  -1.7858175668260559e-06 1.4482348067560637e-04 -4.9406564584124654e-324  -8.1938046797344724e-06 1.4582495353923004e-04 4.9406564584124654e-324  -5.9868056064539294e-06 1.4975184063586658e-04 4.9406564584124654e-324  -8.3079318601490461e-06 1.5073553076307801e-04 -4.9406564584124654e-324  -6.4904454724155352e-06 1.4864806090846965e-04 4.9406564584124654e-324  -1.0263693863843676e-06 1.4981712052355786e-04 -4.9406564584124654e-324  -6.6495688851850771e-06 1.5351300802959560e-04 0.0000000000000000e+00  -1.2321761950745008e-06 1.1353368378631831e-04 4.9406564584124654e-324  -1.2227446613928552e-06 1.1428301125858840e-04 4.9406564584124654e-324  -1.5846875377427872e-06 1.1679410740068377e-04 0.0000000000000000e+00  -1.2357971783684943e-06 1.1532710795173414e-04 0.0000000000000000e+00  -1.5360330484478282e-06 1.1719517908620136e-04 -4.9406564584124654e-324  -1.7837506762905797e-06 1.1907961751051014e-04 0.0000000000000000e+00  -1.2739894646652100e-06 1.1650886424923246e-04 0.0000000000000000e+00  -1.8997521041188321e-06 1.2018903932937679e-04 4.9406564584124654e-324  -2.1385287708824079e-06 1.2143117194766025e-04 -4.9406564584124654e-324  -3.6781793224102607e-07 8.1804170625283235e-05 4.9406564584124654e-324  -2.2221507560652174e-07 8.4303850372399310e-05 -4.9406564584124654e-324  -3.8859657107024484e-07 8.6783378517396259e-05 -4.9406564584124654e-324  -8.8583402702999794e-08 8.6708479367192422e-05 -4.9406564584124654e-324  -2.4951604593257451e-07 8.9108551207505422e-05 -4.9406564584124654e-324  -1.2924824310609840e-07 9.1339037515698055e-05 -4.9406564584124654e-324  2.9311370615504573e-08 8.9019043252330817e-05 0.0000000000000000e+00  -4.1201862954134268e-07 9.1421995466063941e-05 0.0000000000000000e+00  -2.8283060032581086e-07 9.3577709500874693e-05 0.0000000000000000e+00  -2.3209441542260881e-07 1.0136429151865287e-04 4.9406564584124654e-324  -3.7544873647510587e-07 1.0325915665270194e-04 0.0000000000000000e+00  -2.6372654644892472e-07 9.9600966321452945e-05 0.0000000000000000e+00  -5.3586759831289261e-07 1.0513711105724364e-04 4.9406564584124654e-324  -4.1717823531572315e-07 1.0157028014006341e-04 -4.9406564584124654e-324  -5.9783531163657543e-07 1.0349616019517203e-04 4.9406564584124654e-324  -7.3387495685420909e-07 1.0699859104087455e-04 0.0000000000000000e+00  -3.3688017776996512e-07 9.7722691620240784e-05 4.9406564584124654e-324  -5.0720415714749017e-07 9.9754733458693040e-05 4.9406564584124654e-324  -2.9265201094464159e-06 1.2681751021969694e-04 0.0000000000000000e+00  -3.8630609902052120e-06 1.2958317493709596e-04 0.0000000000000000e+00  -3.0071299446411482e-06 1.2586222900290859e-04 4.9406564584124654e-324  -4.5604847045544248e-06 1.3264866729060436e-04 4.9406564584124654e-324  -3.5179647686318376e-06 1.2854947958379549e-04 -4.9406564584124654e-324  -2.6603943201776979e-06 1.3140377814314022e-04 4.9406564584124654e-324  -2.6562543679912835e-06 1.3507074816502458e-04 0.0000000000000000e+00  -2.7312211781187203e-06 1.2486564655609007e-04 0.0000000000000000e+00  -2.5035103233457696e-06 1.2742470635661879e-04 4.9406564584124654e-324  -6.8575405189523710e-07 1.6874941935692179e-04 4.9406564584124654e-324  -1.3108141282023119e-06 1.6658213381914476e-04 4.9406564584124654e-324  -4.8906769585116707e-06 1.6289924167440647e-04 0.0000000000000000e+00  9.9101692270597107e-08 1.6557903570963402e-04 -4.9406564584124654e-324  -1.5892865167571011e-06 1.6216655809654559e-04 -4.9406564584124654e-324  9.0282108548480375e-07 1.6215984715801192e-04 4.9406564584124654e-324  1.5103737206534270e-06 1.6545814723338209e-04 -4.9406564584124654e-324  -4.6480009919497832e-06 1.5857409468000128e-04 -4.9406564584124654e-324  6.6596485605906049e-07 1.5963228597136323e-04 4.9406564584124654e-324  3.2043290505305742e-07 6.1297252274492616e-05 4.9406564584124654e-324  1.1248538747983559e-07 6.4547946140288299e-05 4.9406564584124654e-324  1.8542546123251392e-07 5.8025444751459566e-05 -4.9406564584124654e-324  -8.6730699157094559e-08 6.7698440334369392e-05 0.0000000000000000e+00  -1.1785279530612216e-08 6.1386142281137052e-05 4.9406564584124654e-324  -2.0925479655486479e-07 6.4638433279719110e-05 -4.9406564584124654e-324  -2.8067622623105149e-07 7.0746069292981309e-05 4.9406564584124654e-324  6.4060588186951019e-08 5.4648435289957110e-05 -4.9406564584124654e-324  -1.3693481080439649e-07 5.8130148302570691e-05 -4.9406564584124654e-324  -4.8368047790585487e-07 7.3702389706840278e-05 0.0000000000000000e+00  -4.1768986452931064e-07 6.7786482197299916e-05 4.9406564584124654e-324  -6.2506913585137739e-07 7.0836672460543681e-05 0.0000000000000000e+00  -5.5881780956053905e-07 6.4728252692008127e-05 0.0000000000000000e+00  -3.4613857510904032e-07 6.1475261210770763e-05 -4.9406564584124654e-324  -7.7528714979713486e-07 6.7872064852172125e-05 0.0000000000000000e+00  2.6852694486001543e-06 1.7269523368139837e-04 0.0000000000000000e+00  4.4354798988264533e-06 1.7555709989106597e-04 -4.9406564584124654e-324  3.3932756153943717e-06 1.7598540791664407e-04 0.0000000000000000e+00  6.2614862069267653e-06 1.7840640644797812e-04 4.9406564584124654e-324  5.2891975361514534e-06 1.7857971138283859e-04 -4.9406564584124654e-324  6.1486485805238470e-06 1.8058206442568648e-04 0.0000000000000000e+00  6.8891103923224911e-06 1.7997106924430223e-04 0.0000000000000000e+00  4.0273599824187126e-06 1.7945088150736978e-04 0.0000000000000000e+00  6.7925433073298273e-06 1.8310418953048282e-04 -4.9406564584124654e-324  -8.4698458486911497e-07 8.4413804302018616e-05 -4.9406564584124654e-324  -7.0100293794378444e-07 8.6841332630463813e-05 4.9406564584124654e-324  -6.8390562128958679e-07 8.1857615324293538e-05 4.9406564584124654e-324  -5.3473292791054893e-07 8.4366237620688600e-05 0.0000000000000000e+00  -5.5403008193788715e-07 8.9175825054983263e-05 -4.9406564584124654e-324  -5.1613293155789533e-07 7.9210623762628702e-05 0.0000000000000000e+00  -9.7692000821373655e-07 1.0887067601457679e-04 4.9406564584124654e-324  -8.1626337715470342e-07 1.0540294044486226e-04 0.0000000000000000e+00  -1.0582142105143343e-06 1.0730939077990045e-04 4.9406564584124654e-324  -9.2429043952093673e-07 1.0370604749366239e-04 0.0000000000000000e+00  -7.0550896631020430e-07 1.0174296394303782e-04 4.9406564584124654e-324  -1.1408961769514724e-06 1.0564743292907741e-04 4.9406564584124654e-324  -1.7081892631282570e-06 1.1603492562467186e-04 4.9406564584124654e-324  -1.7344690513522136e-06 1.1749106967980902e-04 0.0000000000000000e+00  -1.4657989247990764e-06 1.1412483126015840e-04 0.0000000000000000e+00  -1.4899102997199065e-06 1.1551231754505304e-04 -4.9406564584124654e-324  -1.8154866559388716e-06 1.1888761169204820e-04 0.0000000000000000e+00  -1.1999609430515306e-06 1.1220611960743737e-04 4.9406564584124654e-324  -2.5201187181033979e-06 1.3685393855776719e-04 4.9406564584124654e-324  -2.5925836866923201e-06 1.3333124211399895e-04 4.9406564584124654e-324  -2.5110183739768253e-06 1.3504534704253257e-04 4.9406564584124654e-324  -2.5279109421594227e-06 1.3155758742277977e-04 -4.9406564584124654e-324  -2.5358442966637419e-06 1.2967315486552919e-04 4.9406564584124654e-324  -2.5331012456220806e-06 1.3329994081126136e-04 -4.9406564584124654e-324  -2.0469898417333640e-06 1.4245525435168096e-04 0.0000000000000000e+00  -1.7544023085056403e-06 1.4543535247039444e-04 0.0000000000000000e+00  -2.1308384344385067e-06 1.4177069895738158e-04 -4.9406564584124654e-324  -1.9648896607271962e-06 1.4382988921771947e-04 0.0000000000000000e+00  -1.3185896217032223e-06 1.4771869646239239e-04 4.9406564584124654e-324  -2.3712776666725058e-06 1.4027231501638661e-04 -4.9406564584124654e-324  1.6363768957436361e-06 1.6731910292801141e-04 4.9406564584124654e-324  1.1985028113364817e-06 1.6381232082680620e-04 -4.9406564584124654e-324  1.3835460415479952e-06 1.6462458065182172e-04 -4.9406564584124654e-324  8.7613593745970054e-07 1.6172074086693929e-04 4.9406564584124654e-324  5.7434790352944585e-07 1.6020714346447773e-04 0.0000000000000000e+00  1.1169887459675759e-06 1.6400617769802271e-04 -4.9406564584124654e-324  1.5599490263206336e-06 1.7258869709527351e-04 4.9406564584124654e-324  2.7311262028640159e-06 1.7497129471159384e-04 4.9406564584124654e-324  2.4113235935973268e-06 1.7225861171464590e-04 4.9406564584124654e-324  2.8354351807078906e-06 1.7417417719964268e-04 4.9406564584124654e-324  3.7474174339821711e-06 1.7743469425040171e-04 -4.9406564584124654e-324  2.2499327668980289e-06 1.7082868241565134e-04 0.0000000000000000e+00  -3.8566198891854297e-08 4.5066362264049188e-05 -4.9406564584124654e-324  -2.3373084874738232e-07 4.1213910368261719e-05 4.9406564584124654e-324  -3.4489219333487624e-08 3.8585143758337487e-05 0.0000000000000000e+00  -4.1798214816291027e-07 3.7324303017633389e-05 -4.9406564584124654e-324  -2.4813698340069631e-07 3.4537029979507149e-05 0.0000000000000000e+00  -4.6799320720841451e-07 3.0444979764543678e-05 -4.9406564584124654e-324  -6.5985632807395201e-07 3.3294074408752783e-05 0.0000000000000000e+00  -6.0795749115885913e-08 3.1787723356690104e-05 0.0000000000000000e+00  -3.0834305185404889e-07 2.7540588820041693e-05 -4.9406564584124654e-324  -1.9075878336555412e-07 2.4690073571159641e-05 -4.9406564584124654e-324  -1.8461407663338018e-06 1.5255156435255445e-04 -4.9406564584124654e-324  -6.0440831348453815e-06 1.5523924036107124e-04 0.0000000000000000e+00  4.3877472520370639e-07 1.6375651006349544e-04 4.9406564584124654e-324  -3.8241294917900504e-06 1.6425104755413738e-04 0.0000000000000000e+00  -6.7930970050596221e-06 1.5948999520643277e-04 4.9406564584124654e-324  1.2449603962507182e-06 1.6776624730005201e-04 -4.9406564584124654e-324  -1.3970085487433515e-06 1.1863270321143300e-04 0.0000000000000000e+00  -1.8109530631403682e-06 1.1969396930634903e-04 4.9406564584124654e-324  -1.8227149804949360