<?xml version="1.0"?>
<VTKFile type="UnstructuredGrid"  version="0.1"  >
<UnstructuredGrid>
<Piece  NumberOfPoints="777" NumberOfCells="1376">
<Points>
<DataArray  type="Float64"  NumberOfComponents="3"  format="ascii">3.999999999999964 0 0  4.249999999999965 0 0  4.124999999998478 0.2534792888374535 0  4.374999999998479 0.2534792888374535 0  4.499999999999966 0 0  4.249999999996992 0.506958577674907 0  4.624999999998479 0.2534792888374535 0  4.499999999996993 0.506958577674907 0  4.749999999996994 0.506958577674907 0  4.749999999999967 0 0  4.874999999998481 0.2534792888374535 0  4.999999999999968 0 0  4.374999999995506 0.7604378665123606 0  4.624999999995506 0.7604378665123606 0  4.499999999994019 1.013917155349814 0  5.99999999999997 0 0  6.249999999999971 0 0  6.124999999997403 0.2534792888376092 0  6.374999999997405 0.2534792888376092 0  6.499999999999972 0 0  6.249999999994837 0.5069585776752185 0  6.624999999997405 0.2534792888376092 0  6.499999999994838 0.5069585776752185 0  6.749999999994839 0.5069585776752185 0  6.749999999999972 0 0  6.874999999997407 0.2534792888376092 0  6.999999999999973 0 0  6.374999999992271 0.7604378665128277 0  6.624999999992271 0.7604378665128277 0  6.499999999989704 1.013917155350437 0  1.999999999999982 0 0  2.24999999999998 0 0  2.12499999999946 0.2613818370536612 0  2.374999999999459 0.2613818370536612 0  2.499999999999979 0 0  2.249999999998939 0.5227636741073225 0  2.624999999999457 0.2613818370536612 0  2.499999999998937 0.5227636741073225 0  2.749999999998935 0.5227636741073225 0  2.749999999999977 0 0  2.874999999999455 0.2613818370536612 0  2.999999999999975 0 0  2.374999999998417 0.7841455111609837 0  2.624999999998415 0.7841455111609837 0  2.499999999997895 1.045527348214645 0  1.999999999998379 2 0  1.74999999999856 2 0  1.874999999998781 1.716506350946107 0  1.624999999998962 1.716506350946107 0  1.499999999998741 2 0  1.749999999999184 1.433012701892215 0  1.374999999999143 1.716506350946107 0  1.499999999999365 1.433012701892215 0  1.249999999999545 1.433012701892215 0  1.249999999998922 2 0  1.124999999999324 1.716506350946107 0  0.9999999999991025 2 0  1.624999999999586 1.149519052838322 0  1.374999999999767 1.149519052838322 0  1.499999999999988 0.8660254037844294 0  7.999999999999975 0 0  8.249999999999975 0 0  8.124690294450405 0.261918262795331 0  8.374690294450405 0.261918262795331 0  8.499999999999975 0 0  8.249380588900834 0.523836525590662 0  8.624690294450405 0.261918262795331 0  8.499380588900834 0.523836525590662 0  8.749380588900834 0.523836525590662 0  8.749999999999975 0 0  8.874690294450406 0.261918262795331 0  8.999999999999977 0 0  8.374070883351264 0.785754788385993 0  8.624070883351264 0.785754788385993 0  8.498761177801693 1.047673051181324 0  18.99999999999849 2 0  18.74999999999811 2 0  18.87499999999887 1.71650635094611 0  18.62499999999849 1.71650635094611 0  18.49999999999773 2 0  18.74999999999925 1.433012701892219 0  18.37499999999811 1.71650635094611 0  18.49999999999887 1.433012701892219 0  18.24999999999849 1.433012701892219 0  18.24999999999736 2 0  18.12499999999773 1.71650635094611 0  17.99999999999698 2 0  18.62499999999962 1.149519052838329 0  18.37499999999925 1.149519052838329 0  18.5 0.8660254037844386 0  16.99999999999547 2 0  16.74999999999509 2 0  16.87499999999629 1.746520711162699 0  16.62499999999591 1.746520711162699 0  16.49999999999471 2 0  16.7499999999971 1.493041422325399 0  16.37499999999553 1.746520711162699 0  16.49999999999672 1.493041422325399 0  16.24999999999635 1.493041422325399 0  16.24999999999434 2 0  16.12499999999515 1.746520711162699 0  15.99999999999396 2 0  16.62499999999792 1.239562133488098 0  16.37499999999754 1.239562133488098 0  16.49999999999874 0.9860828446507974 0  12.99999999998939 2 0  12.74999999998901 2 0  12.87499999999136 1.74652071116254 0  12.62499999999098 1.74652071116254 0  12.49999999998862 2 0  12.74999999999334 1.49304142232508 0  12.3749999999906 1.74652071116254 0  12.49999999999295 1.49304142232508 0  12.24999999999257 1.49304142232508 0  12.24999999998824 2 0  12.12499999999022 1.74652071116254 0  11.99999999998786 2 0  12.62499999999531 1.239562133487619 0  12.37499999999493 1.239562133487619 0  12.49999999999728 0.9860828446501591 0  10.99999999998634 2 0  10.74999999998596 2 0  10.87439297711764 1.749732347235992 0  10.62439297711725 1.749732347235992 0  10.49999999998558 2 0  10.74878595424893 1.499464694471983 0  10.37439297711687 1.749732347235992 0  10.49878595424855 1.499464694471983 0  10.24878595424817 1.499464694471983 0  10.2499999999852 2 0  10.1243929771165 1.749732347235992 0  9.999999999984821 2 0  10.62317893138022 1.249197041707975 0  10.37317893137984 1.249197041707975 0  10.49757190851152 0.9989293889439668 0  14.99999999999243 2 0  14.74999999999205 2 0  14.87499999999383 1.74652071116262 0  14.62499999999345 1.74652071116262 0  14.49999999999167 2 0  14.74999999999522 1.493041422325239 0  14.37499999999307 1.74652071116262 0  14.49999999999484 1.493041422325239 0  14.24999999999446 1.493041422325239 0  14.24999999999129 2 0  14.12499999999268 1.74652071116262 0  13.99999999999091 2 0  14.62499999999661 1.239562133487858 0  14.37499999999624 1.239562133487858 0  14.49999999999801 0.9860828446504779 0  10.24702918641092 0.9928167955694513 0  10.12263620927924 1.24308444833346 0  9.996486464310319 0.986704202194936 0  9.998243232147571 1.493352101097468 0  9.872093487178645 1.236971854958944 0  9.747700510046972 1.487239507722953 0  9.873850255015896 1.743619753861476 0  9.74594374220972 0.9805916088204207 0  9.621550765078046 1.230859261584429 0  9.495401020109121 0.9744790154459053 0  9.749999999984439 2 0  9.623850255015515 1.743619753861476 0  9.499999999984059 2 0  9.373850255015135 1.743619753861476 0  9.497700510046592 1.487239507722953 0  9.24770051004621 1.487239507722953 0  9.249999999983679 2 0  9.123850255014755 1.743619753861476 0  8.999999999983299 2 0  9.371550765077664 1.230859261584429 0  3.999999999993654 2 0  3.749999999994383 2 0  3.874999999994342 1.744460791439874 0  3.624999999995071 1.744460791439874 0  3.499999999995112 2 0  3.74999999999503 1.488921582879748 0  3.3749999999958 1.744460791439874 0  3.499999999995759 1.488921582879748 0  3.249999999996488 1.488921582879748 0  3.249999999995841 2 0  3.124999999996529 1.744460791439874 0  2.99999999999657 2 0  3.624999999995718 1.233382374319621 0  3.374999999996447 1.233382374319621 0  3.499999999996406 0.9778431657594949 0  5.99999999998782 2 0  5.74999999998855 2 0  5.87499999998929 1.751159762945844 0  5.62499999999002 1.751159762945844 0  5.499999999989278 2 0  5.749999999990761 1.502319525891687 0  5.374999999990749 1.751159762945844 0  5.49999999999149 1.502319525891687 0  5.24999999999222 1.502319525891687 0  5.249999999990007 2 0  5.124999999991478 1.751159762945844 0  4.999999999990736 2 0  5.624999999992232 1.253479288837531 0  5.37499999999296 1.253479288837531 0  5.499999999993702 1.004639051783375 0  16.99999999999999 0 0  17.24999999999999 0 0  17.1249999999998 0.2593847116342085 0  17.37499999999981 0.2593847116342085 0  17.49999999999999 0 0  17.24999999999962 0.518769423268417 0  17.62499999999981 0.2593847116342085 0  17.49999999999962 0.518769423268417 0  17.74999999999962 0.518769423268417 0  17.75 0 0  17.87499999999981 0.2593847116342085 0  18 0 0  17.37499999999944 0.7781541349026255 0  17.62499999999944 0.7781541349026255 0  17.49999999999925 1.037538846536834 0  14.99999999999999 0 0  15.24999999999999 0 0  15.12499999999929 0.2488402370542198 0  15.37499999999929 0.2488402370542198 0  15.49999999999999 0 0  15.24999999999858 0.4976804741084396 0  15.62499999999929 0.2488402370542198 0  15.49999999999858 0.4976804741084396 0  15.74999999999858 0.4976804741084396 0  15.74999999999999 0 0  15.87499999999929 0.2488402370542198 0  15.99999999999999 0 0  15.37499999999788 0.7465207111626594 0  15.62499999999788 0.7465207111626594 0  15.49999999999718 0.9953609482168791 0  7.999999999982053 2 0  7.749999999982765 2 0  7.874963130275843 1.744524651647608 0  7.624963130276555 1.744524651647608 0  7.499999999983477 2 0  7.749926260569634 1.489049303295215 0  7.374963130277267 1.744524651647608 0  7.499926260570346 1.489049303295215 0  7.249926260571058 1.489049303295215 0  7.24999999998419 2 0  7.12496313027798 1.744524651647608 0  6.999999999984902 2 0  7.624889390863425 1.233573954942823 0  7.374889390864137 1.233573954942823 0  7.499852521157216 0.9780986065904302 0  12.99999999999999 0 0  13.24999999999999 0 0  13.12499999999898 0.2488402370541932 0  13.37499999999898 0.2488402370541932 0  13.49999999999999 0 0  13.24999999999796 0.4976804741083863 0  13.62499999999898 0.2488402370541932 0  13.49999999999796 0.4976804741083863 0  13.74999999999796 0.4976804741083863 0  13.74999999999999 0 0  13.87499999999898 0.2488402370541932 0  13.99999999999999 0 0  13.37499999999694 0.7465207111625796 0  13.62499999999694 0.7465207111625796 0  13.49999999999593 0.9953609482167727 0  10.99999999999998 0 0  11.24999999999998 0 0  11.12489882952011 0.2493755097330886 0  11.37489882952011 0.2493755097330886 0  11.49999999999998 0 0  11.24979765904023 0.4987510194661772 0  11.62489882952011 0.2493755097330886 0  11.49979765904023 0.4987510194661772 0  11.74979765904023 0.4987510194661772 0  11.74999999999998 0 0  11.87489882952011 0.2493755097330886 0  11.99999999999998 0 0  11.37469648856036 0.7481265291992658 0  11.62469648856036 0.7481265291992658 0  11.49959531808049 0.9975020389323543 0  6.749963130281582 1.004962518160435 0  6.874963130284149 0.751483229322826 0  6.99992626057346 0.9960078809704336 0  6.999963130286717 0.4980039404852168 0  7.124926260576027 0.7425285921328244 0  7.249926260578595 0.4890493032952151 0  7.124963130289284 0.2445246516476076 0  7.249889390865338 0.9870532437804319 0  7.374889390867905 0.7335739549428226 0  4.74999999999394 1.011597629458204 0  4.874999999995428 0.7581183406207508 0  4.999999999993861 1.009278103566595 0  4.999999999996
[...]
<PointData  Vectors="u"> 
<DataArray  type="Float64"  Name="u"  NumberOfComponents="3" format="ascii">-3.6703973194107675e-13 -8.3377749149349256e-13 -4.2505594005615821e-02  -3.8369307731045410e-13 -9.2925667161125602e-13 -4.7591694551531560e-02  -2.7955415760061442e-13 -8.8107299234252423e-13 -4.4887967084986879e-02  -2.9154456626656611e-13 -9.7832852929968794e-13 -5.0099252389006921e-02  -3.9923619965520629e-13 -1.0285106100127450e-12 -5.2919057754055920e-02  -1.8851586958135158e-13 -9.2925667161125602e-13 -4.7373288930244062e-02  -3.0331293032759277e-13 -1.0789147353307271e-12 -5.5548054252860357e-02  -1.9673151996357774e-13 -1.0280665208028950e-12 -5.2706779599500209e-02  -2.0405899192610377e-13 -1.1304290836733344e-12 -5.8274049584979615e-02  -4.1389114358025836e-13 -1.1304290836733344e-12 -5.8480109141255454e-02  -3.1374902675906924e-13 -1.1830536550405668e-12 -6.1226801126722297e-02  -4.2876813211023546e-13 -1.2367884494324244e-12 -6.4267367780155737e-02  -9.4813046302988369e-14 -9.7788444008983788e-13 -4.9958817284420309e-02  -9.8809849191638932e-14 -1.0789147353307271e-12 -5.5411640638394655e-02  2.4424906541753444e-15 -1.0271783423831948e-12 -5.2642038707674033e-02  -4.7783998979866737e-13 -1.6944223801829139e-12 -8.9531538998282034e-02  -4.8827608623014385e-13 -1.8145485114473558e-12 -9.6341329164384426e-02  -3.6171066142287600e-13 -1.7541523789077473e-12 -9.2812124327400491e-02  -3.6948222259525210e-13 -1.8756107778017395e-12 -9.9718278605007704e-02  -4.9893422726654535e-13 -1.9377832671807482e-12 -1.0333517539427661e-01  -2.4358293160275934e-13 -1.8147705560522809e-12 -9.6172405766957514e-02  -3.7769787297747826e-13 -2.0003998457696071e-12 -1.0680510207074878e-01  -2.4913404672588513e-13 -1.9377832671807482e-12 -1.0317215155755921e-01  -2.5401902803423582e-13 -2.0636825581732410e-12 -1.1034925193949396e-01  -5.0892623448817176e-13 -2.0636825581732410e-12 -1.1050649040918148e-01  -3.8458125573015423e-13 -2.1276314043916500e-12 -1.1406605850266005e-01  -5.1780801868517301e-13 -2.1913582060051340e-12 -1.1784879126736270e-01  -1.2323475573339238e-13 -1.8756107778017395e-12 -9.9610051454049886e-02  -1.2589929099249275e-13 -2.0001778011646820e-12 -1.0670069579838382e-01  -4.4408920985006262e-16 -1.9375612225758232e-12 -1.0312275126343762e-01  -2.0961010704922955e-13 -2.3847590568948362e-13 -1.1413713961661243e-02  -2.3181456754173269e-13 -2.9576341376014170e-13 -1.4289012627327624e-02  -1.6187051699034782e-13 -2.6645352591003757e-13 -1.2661735909211824e-02  -1.7785772854495008e-13 -3.2618352463487099e-13 -1.5691458716975859e-02  -2.5268676040468563e-13 -3.5793590313915047e-13 -1.7470440966962597e-02  -1.0969003483296547e-13 -2.9598545836506673e-13 -1.4036452180191228e-02  -1.9340085088970227e-13 -3.9079850466805510e-13 -1.9023902541612125e-02  -1.1968204205459188e-13 -3.5815794774407550e-13 -1.7218385780088719e-02  -1.2945200467129325e-13 -4.2521541843143495e-13 -2.0699472003022912e-02  -2.7355895326763857e-13 -4.2521541843143495e-13 -2.0949631008839065e-02  -2.0827783941967937e-13 -4.6074255521943996e-13 -2.2650378941419858e-02  -2.9309887850104133e-13 -4.9737991503207013e-13 -2.4718150764938551e-02  -5.2624571367232420e-14 -3.2662761384472105e-13 -1.5534231442142277e-02  -5.7287508070658077e-14 -3.9124259387790516e-13 -1.8866746520724842e-02  9.3258734068513149e-15 -3.5815794774407550e-13 -1.7152968636587440e-02  2.0516921495072893e-13 -2.3936408410918375e-13 -1.1411544386565220e-02  1.8363088827300089e-13 -1.8807178037150152e-13 -8.8317778885180775e-03  1.3700152123874432e-13 -2.1338486533295509e-13 -9.9280794920377780e-03  1.2168044349891716e-13 -1.6475709685437323e-13 -7.5141748660454422e-03  1.6064927166326015e-13 -1.4233059175694507e-13 -6.5722534123058285e-03  7.7049477908985864e-14 -1.8807178037150152e-13 -8.5846063943761930e-03  1.0502709812953981e-13 -1.2168044349891716e-13 -5.4261502619148416e-03  6.7612582199672033e-14 -1.4255263636187010e-13 -6.3398522364102039e-03  5.7509552675583109e-14 -1.0236256287043943e-13 -4.4267701276741178e-03  1.3722356584366935e-13 -1.0280665208028950e-13 -4.6395873663875875e-03  8.7929663550312398e-14 -8.4376949871511897e-14 -3.6705993774679424e-03  1.1290968160437842e-13 -6.8167693711984612e-14 -3.0425710029571285e-03  2.4313884239290928e-14 -1.6431300764452317e-13 -7.3763161136715105e-03  2.0983215165415459e-14 -1.2145839889399213e-13 -5.3030932316382451e-03  -2.1760371282653068e-14 -1.4166445794216997e-13 -6.2982051819722162e-03  -5.5289106626332796e-13 -2.7213786779611837e-12 -1.4879650671171718e-01  -5.6088467204062908e-13 -2.8594904222245532e-12 -1.5689826573088483e-01  -4.1255887595070817e-13 -2.7895463716731683e-12 -1.5274441678972006e-01  -4.1833203567875898e-13 -2.9285462943562379e-12 -1.6091742502353124e-01  -5.6799009939823009e-13 -2.9987123895125478e-12 -1.6513499658188691e-01  -2.7089441800853820e-13 -2.8592683776196282e-12 -1.5675278182493368e-01  -4.2388315080188477e-13 -3.0691005292737827e-12 -1.6922235486934500e-01  -2.7466917629226373e-13 -2.9984903449076228e-12 -1.6499445687570158e-01  -2.7844393457598926e-13 -3.1392666244300926e-12 -1.7336512901859313e-01  -5.7509552675583109e-13 -3.1397107136399427e-12 -1.7350097850116963e-01  -4.2921222132008552e-13 -3.2107649872159527e-12 -1.7765356068160454e-01  -5.8220095411343209e-13 -3.2824853946067378e-12 -1.8199065791016555e-01  -1.2745360322696797e-13 -2.9285462943562379e-12 -1.6081949543226370e-01  -1.2922996006636822e-13 -3.0686564400639327e-12 -1.6912741421380062e-01  1.8096635301390052e-14 -2.9980462556977727e-12 -1.6494249794684102e-01  7.0388139761234925e-13 -1.0045964060623191e-11 -5.7408126818878191e-01  7.0232708537787403e-13 -9.8665520198437662e-12 -5.6380427039792536e-01  5.0026649489609554e-13 -9.9560359956285538e-12 -5.6893835548789373e-01  4.9915627187147038e-13 -9.7770680440589786e-12 -5.5866175526592410e-01  7.0099481774832384e-13 -9.6878061128791160e-12 -5.5352888960838098e-01  2.9565239145767919e-13 -9.8667740644486912e-12 -5.6379597713578278e-01  4.9815707114930774e-13 -9.5989882709091034e-12 -5.4838703050623261e-01  2.9498625764290409e-13 -9.6875840682741909e-12 -5.5351997352232840e-01  2.9465319073551655e-13 -9.5090602059144658e-12 -5.4324617358503091e-01  7.0055072853847378e-13 -9.5092822505193908e-12 -5.4325582347252288e-01  4.9760195963699516e-13 -9.4197982747346032e-12 -5.3811494871740129e-01  6.9944050551384862e-13 -9.3303142989498156e-12 -5.3298589934546947e-01  9.2148511043887993e-14 -9.7772900886639036e-12 -5.5865443919551305e-01  9.1815444136500446e-14 -9.5981000924894033e-12 -5.4837930182247430e-01  -1.1124434706744069e-13 -9.6878061128791160e-12 -5.5351405503554130e-01  6.9599881413751064e-13 -8.6182172509552402e-12 -4.9195784619765415e-01  6.9444450190303542e-13 -8.4403595224102901e-12 -4.8171965875963929e-01  5.1547655033346018e-13 -8.5293994089852276e-12 -4.8682921164953963e-01  5.1458837191376006e-13 -8.3517637250452026e-12 -4.7659518928906408e-01  6.9344530118087278e-13 -8.2633899722850401e-12 -4.7149189092091137e-01  3.3528735343679728e-13 -8.4403595224102901e-12 -4.8170396762700030e-01  5.1381121579652245e-13 -8.1747941749199526e-12 -4.6637232512843574e-01  3.3484326422694721e-13 -8.2631679276801151e-12 -4.7147469231929762e-01  3.3473224192448470e-13 -8.0861983775548651e-12 -4.6125736658211980e-01  6.9300121197102271e-13 -8.0864204221597902e-12 -4.6127618779224266e-01  5.1347814888913490e-13 -7.9978246247947027e-12 -4.5616232393853240e-01  6.9222405585378510e-13 -7.9096729166394653e-12 -4.5107431320682223e-01  1.5598633495983449e-13 -8.3517637250452026e-12 -4.7658274415525681e-01  1.5543122344752192e-13 -8.1750162195248777e-12 -4.6635884719635223e-01  -2.3758772726978350e-14 -8.2631679276801151e-12 -4.7146616773678796e-01  6.7046368457113203e-13 -5.8153482029865700e-12 -3.3053667538809051e-01  6.6591177017016889e-13 -5.6445959017992209e-12 -3.2072998634889949e-01  4.9604764740251994e-13 -5.7298610300904329e-12 -3.2559715507006026e-01  4.9216186681633189e-13 -5.5597748627178589e-12 -3.1581375072682172e-01  6.6080474425689317e-13 -5.4751758682414220e-12 -3.1097456394334722e-01  3.2274183325853301e-13 -5.6443738571942959e-12 -3.2067640591584712e-01  4.8872017543999391e-13 -5.3910209629748351e-12 -3.0608332218637613e-01  3.2007729799943263e-13 -5.4749538236364970e-12 -3.1091766320815584e-01  3.1752378504279477e-13 -5.3066440131033232e-12 -3.0121365976277614e-01  6.5514260683130487e-13 -5.3070881023131733e-12 -3.0127400101607660e-01  4.8416826103903077e-13 -5.2240434200712116e-12 -2.9640952331244974e-01  6.4948046940571658e-13 -5.1414428270390999e-12 -2.9163201123258009e-01  1.5154544286133387e-13 -5.5588866842981588e-12 -3.1577576686856590e-01  1.5076828674409626e-13 -5.3905768737649851e-12 -3.0604311266495987e-01  -1.7763568394002505e-14 -5.4742876898217219e-12 -3.1089657011496441e-01  6.2383431753687546e-13 -4.4932946252629336e-12 -2.5372765033380529e-01  6.1728400169158704e-13 -4.3358650003710864e-12 -2.4443800386429526e-01  4.6240788975637770e-13 -4.4140247013046974e-12 -2.4900341299470208e-01  4.5752290844802701e-13 -4.2565950764128502e-12 -2.3975259613659783e-01  6.1062266354383610e-13 -4.1791015092940142e-12 -2.3523159737286803e-01  3.0320190802513025e-13 -4.3345327327415362e-12 -2.4431025078428736e-01  4.5219383792982626e-13 -4.1009418083604032e-12 -2.3058723671254655e-01  2.9987123895125478e-13 -4.1779912862693891e-12 -2.3510005626519193e-01  2.9587443606260422e-13 -4.0234482412415673e-12 -2.2597757347395642e-01  6.0329519158131006e-13 -4.0245584642661925e-12 -2.2611298052145790e-01  4.4719783431901305e-13 -3.9472869417522816e-12 -2.2151192677508624e-01  5.9552363040893397e-13 -3.8720138206826960e-12 -2.1708679975734535e-01  1.4621637234313312e-13 -4.2554848533882250e-12 -2.3964984957202184e-01  1.4432899320127035e-13 -4.1000536299407031e-12 -2.3048211585713085e-01  -9.1038288019262836e-15 -4.1771031078496890e-12 -2.3502388547896125e-01  6.8878236447744712e-13 -7.2062356082369661e-12 -4.1044447325300815e-01  6.8789418605774699e-13 -7.0303762811363413e-12 -4.0034233428852972e-01  5.1092463593249704e-13 -7.1187500338965037e-12 -4.0537316093517006e-01  5.1081361363003452e-13 -6.9431127514008040e-12 -3.9528279720720039e-01  6.8700600763804687e-13 -6.8556271770603416e-12 -3.9026714523496153e-01  3.3351099659739702e-13 -7.0312644595560414e-12 -4.0031132981515838e-01  5.0981441290787188e-13 -6.7683636473248043e-12 -3.8522060786404122e-01  3.3384406350478457e-13 -6.8556271770603416e-12 -3.9023372354610597e-01  3.3295588508508445e-13 -6.6811001175892670e-12 -3.8018556807906356e-01  6.8545169540357165e-13 -6.6813221621941921e-12 -3.8022152296035983e-01  5.0814907837093415e-13 -6.5940586324586548e-12 -3.7518927086667508e-01  6.8378636086663391e-13 -6.5070171473280425e-12 -3.7020820597359472e-01  1.5698553568199713e-13 -6.9433347960057290e-12 -3.9525996569152988e-01  1.5698553568199713e-13 -6.7688077365346544e-12 -3.8519614566934557e-01  -1.9984014443252818e-14 -6.8565153554800418e-12 -3.9022004780572406e-01  -1.2656542480726785e-14 -4.0225600628218672e-12 -2.2588076961407033e-01  1.3888890038060708e-13 -3.9463987633325814e-12 -2.2138440662926739e-01  -1.6431300764452317e-14 -3.8697933746334456e-12 -2.1683047096555508e-01  2.8910207561239076e-13 -3.8709035976580708e-12 -2.1692718461970784e-01  1.3333778525748130e-13 -3.7947422981687851e-12 -2.1238185686473199e-01  2.8199664825478976e-13 -3.7208014447287496e-12 -2.0797436704153616e-01  4.3798298321462426e-13 -3.7960745657983352e-12 -2.1251082805287846e-01  -2.0206059048177849e-14 -3.7194691770991994e-12 -2.0787780084383334e-01  1.2778667013435552e-13 -3.6455283236591640e-12 -2.0347935950398188e-01  -2.3536728122053319e-14 -3.5709213364043535e-12 -1.9902771043468737e-01  5.8775206923655787e-13 -3.7223557569632248e-12 -2.0815792918266407e-01  4.3187675657918589e-13 -3.6475267251034893e-12 -2.0363026601674150e-01  5.8020255266910681e-13 -3.5740299608733039e-12 -1.9933155782383549e-01  4.2665870836344766e-13 -3.4998670628283435e-12 -1.9485467285736413e-01  2.7788882306367668e-13 -3.5726976932437537e-12 -1.9914410464844101e-01  2.7422508708241367e-13 -3.4261482539932331e-12 -1.9042136153465661e-01  5.7298610300904329e-13 -3.4279246108326333e-12 -1.9061285637101211e-01  4.2110759324032188e-13 -3.3542058019975229e-12 -1.8618928357426245e-01  5.6588067565144229e-13 -3.2829294838165879e-12 -1.8200714176337418e-01  1.2612133559741778e-13 -3.4980907059889432e-12 -1.9470145450293086e-01  3.5926817076870066e-13 -8.3422158070334262e-13 -4.2522369822286965e-02  3.4250380309686079e-13 -7.4407147110377991e-13 -3.7683164297799276e-02  2.5968116545982411e-13 -7.8848039208878618e-13 -3.9932403605829503e-02  2.4713564528155985e-13 -7.0010663932862371e-13 -3.5217602471593779e-02  3.2551739082009590e-13 -6.5791816439286777e-13 -3.3100771851862332e-02  1.6486811915683575e-13 -7.4384942649885488e-13 -3.7443541471097186e-02  2.3392399128852048e-13 -6.1617377866696188e-13 -3.0763736464704872e-02  1.5643042416968456e-13 -6.5747407518301770e-13 -3.2856217913310060e-02  1.4732659536775827e-13 -5.7576166057060618e-13 -2.8534122831173736e-02  3.0775382242609339e-13 -5.7598370517553121e-13 -2.8783024886540165e-02  2.2004620348070603e-13 -5.3623772089395061e-13 -2.6578801942560348e-02  2.8921309791485328e-13 -4.9782400424192019e-13 -2.4737744366955194e-02  7.4940054162198066e-14 -7.0010663932862371e-13 -3.5057909612494553e-02  7.0610184366159956e-14 -6.1550764485218679e-13 -3.0601043303386088e-02  -9.7699626167013776e-15 -6.5702998597316764e-13 -3.2777530507505315e-02  4.6729287106472839e-13 -1.6926460233435137e-12 -8.9549784935577303e-02  4.5619064081847682e-13 -1.5738521597086219e-12 -8.2930607807542245e-02  3.4461322684364859e-13 -1.6329160246186802e-12 -8.6108300832210105e-02  3.3595348725157237e-13 -1.5161205624281138e-12 -7.9583415700650306e-02  4.4453329905991268e-13 -1.4590550989623807e-12 -7.6508962806414171e-02  2.2581936320875684e-13 -1.5740742043135469e-12 -8.2742203420250737e-02  3.2684965844964609e-13 -1.4019896354966477e-12 -7.3259512416471884e-02  2.1982415887578100e-13 -1.4586110097525307e-12 -7.6314351700919270e-02  2.1349588763541760e-13 -1.3462564396604648e-12 -7.0090989633830647e-02  4.3209880118411093e-13 -1.3460343950555398e-12 -7.0291824325017682e-02  3.1741276274033225e-13 -1.2911893776390571e-12 -6.7143630654375563e-02  4.1910919179599659e-13 -1.2367884494324244e-12 -6.4286265478142646e-02  1.0969003483296547e-13 -1.5158985178231887e-12 -7.9453927921735668e-02  1.0680345496894006e-13 -1.4015455462867976e-12 -7.3125878323951454e-02  -2.8865798640254070e-15 -1.4583889651476056e-12 -7.6245907344999475e-02  -7.2430950126545213e-13 -8.6186613401650902e-12 -4.9194083681136291e-01  -7.2519767968515225e-13 -8.7965190687100403e-12 -5.0218787659432773e-01  -5.4067861299245124e-13 -8.7074791821351027e-12 -4.9706006088351362e-01  -5.4223292522692645e-13 -8.8851148660751278e-12 -5.0731175802122985e-01  -7.2652994731470244e-13 -8.9741547526500653e-12 -5.1244244332456823e-01  -3.5704772471945034e-13 -8.7958529348952652e-12 -5.0218348937349155e-01  -5.4289905904170155e-13 -9.0629725946200779e-12 -5.1757024654707884e-01  -3.5793590313915047e-13 -8.9739327080451403e-12 -5.1243922588432422e-01  -3.5860203695392556e-13 -9.1524565704048655e-12 -5.2270107433363111e-01  -7.2719608112947753e-13 -9.1520124811950154e-12 -5.2270324598707107e-01  -5.4378723746140167e-13 -9.2412744123748780e-12 -5.2783429346991850e-01  -7.2897243796887778e-13 -9.3300922543448905e-12 -5.3296911241693112e-01  -1.7297274723659939e-13 -8.8848928214702028e-12 -5.0731070125823696e-01  -1.7341683644644945e-13 -9.0625285054102278e-12 -5.1756991779674366e-01  1.1657341758564144e-14 -8.9737106634402153e-12 -5.1244127340406154e-01  -7.1276318180935050e-13 -7.2060135636320410e-12 -4.1042800804870749e-01  -7.1453953864875075e-13 -7.3816508461277408e-12 -4.2055448394042694e-01  -5.3868021154812595e-13 -7.2937211825774284e-12 -4.1547695120631589e-01  -5.4023452378260117e-13 -7.4700245988879033e-12 -4.2561602059467929e-01  -7.1564976167337591e-13 -7.5579542624382157e-12 -4.3070305683065335e-01  -3.6437519668197638e-13 -7.3816508461277408e-12 -4.2053652513808015e-01  -5.4156679141215136e-13 -7.6456618813836030e-12 -4.3577597847740490e-01  -3.6548541970660153e-13 -7.5575101732283656e-12 -4.3068719621106433e-01  -3.6637359812630166e-13 -7.7338135895388405e-12 -4.4085759738492492e-01  -7.1698202930292609e-13 -7.7338135895388405e-12 -4.4087147465103604e-01  -5.4245496983185149e-13 -7.8219652976940779e-12 -4.4595463356610621e-01  -7.1898043074725138e-13 -7.9098949612443903e-12 -4.5105760679007911e-01  -1.8984813721090177e-13 -7.4695805096780532e-12 -4.2560596542293672e-01  -1.9073631563060189e-13 -7.6456618813836030e-12 -4.3576729147718951e-01  -1.4876988529977098e-14 -7.5575101732283656e-12 -4.3068450474752429e-01  5.3634874319641312e-13 -2.7213786779611837e-12 -1.4881456609079979e-01  5.2868820432649954e-13 -2.5857094243519896e-12 -1.4085130684368030e-01  3.9424019604439309e-13 -2.6529889396442741e-12 -1.4473157861603192e-01  3.8824499171141724e-13 -2.5182078644547801e-12 -1.3683777201546476e-01  5.2047255394427339e-13 -2.4513724383723456e-12 -1.3303450772515957e-01  2.5368596112684827e-13 -2.5854873797470646e-12 -1.4070533923064765e-01  3.8191672047105385e-13 -2.3852031461046863e-12 -1.2909326793889409e-01  2.5002222514558525e-13 -2.4513724383723456e-12 -1.3288322451350165e-01  2.4591439995447217e-13 -2.3196999876518021e-12 -1.2521337421199275e-01  5.1136872514234710e-13 -2.3199220322567271e-12 -1.2537018406970324e-01  3.7547742692822794e-13 -2.2546409184087679e-12 -1.2150414671615195e-01  5.0315307476012094e-13 -2.1902479829805088e-12 -1.1786447645811782e-01  1.1568523916594131e-13 -2.5182078644547801e-12 -1.3673799515149043e-01  1.1390888232654106e-13 -2.3854251907096113e-12 -1.2898996328473977e-01  -1.9761969838327786e-14 -2.4515944829772707e-12 -1.3283174066247772e-01  -6.8833827526759706e-13 -5.8137938907520947e-12 -3.3052092464624661e-01  -6.9255712276117265e-13 -5.9856564149640690e-12 -3.4037521614254795e-01  -5.2002846473442332e-13 -5.8997251528580819e-12 -3.3541848140696051e-01  -5.2313708920337376e-13 -6.0724758554897562e-12 -3.4529720031334721e-01  -6.9588779183504812e-13 -6.1584071175957433e-12 -3.5027397448588693e-01  -3.5105252038647450e-13 -5.9856564149640690e-12 -3.4033635452642996e-01  -5.2580162446247414e-13 -6.2450045135165055e-12 -3.5521868976161741e-01  -3.5349501104064984e-13 -6.1588512068055934e-12 -3.5023811565806962e-01  -3.5549341248497512e-13 -6.3320459986471178e-12 -3.6018100184065771e-01  -6.9944050551384862e-13 -6.3316019094372678e-12 -3.6021397488642348e-01  -5.2846615972157451e-13 -6.4186433945678800e-12 -3.6517978492943093e-01  -7.0299321919264912e-13 -6.5061289689083424e-12 -3.7019211379919259e-01  -1.8229862064345070e-13 -6.0722538108848312e-12 -3.4527343499650831e-01  -1.8363088827300089e-13 -6.2454486027263556e-12 -3.5519690050346164e-01  -1.1768364061026659e-14 -6.1586291622006684e-12 -3.5022861252953819e-01  -6.4082072981364036e-13 -4.4939607590777086e-12 -2.5371220162087305e-01  -6.4726002335646626e-13 -4.6538328746237312e-12 -2.6308062049456038e-01  -4.8472337255134335e-13 -4.5736747722457949e-12 -2.5834257124835935e-01  -4.8983039846461907e-13 -4.7337689323967425e-12 -2.6775106109259883e-01  -6.5347727229436714e-13 -4.8145931685894539e-12 -2.7252360001601206e-01  -3.2840397068412130e-13 -4.6529446962040311e-12 -2.6300605050927439e-01  -4.9471537977296975e-13 -4.8954174047821652e-12 -2.7723194651171323e-01  -3.3195668436292181e-13 -4.8139270347746788e-12 -2.7245284314382867e-01  -3.3528735343679728e-13 -4.9764636855798017e-12 -2.8196991430021034e-01  -6.5991656583719305e-13 -4.9771298193945768e-12 -2.8203696780283405e-01  -4.9982240568624547e-13 -5.0590642786119133e-12 -2.8678110578920801e-01  -6.6568972556524386e-13 -5.1412207824341749e-12 -2.9161665812800730e-01  -1.7030821197749901e-13 -4.7326587093721173e-12 -2.6770119376877566e-01  -1.7230661342182430e-13 -4.8951953601772402e-12 -2.7718456513244116e-01  -1.0214051826551440e-14 -4.813704990169753