<?xml version="1.0"?>
<VTKFile type="UnstructuredGrid"  version="0.1"  >
<UnstructuredGrid>
<Piece  NumberOfPoints="777" NumberOfCells="1376">
<Points>
<DataArray  type="Float64"  NumberOfComponents="3"  format="ascii">3.999999999999964 0 0  4.249999999999965 0 0  4.124999999998478 0.2534792888374535 0  4.374999999998479 0.2534792888374535 0  4.499999999999966 0 0  4.249999999996992 0.506958577674907 0  4.624999999998479 0.2534792888374535 0  4.499999999996993 0.506958577674907 0  4.749999999996994 0.506958577674907 0  4.749999999999967 0 0  4.874999999998481 0.2534792888374535 0  4.999999999999968 0 0  4.374999999995506 0.7604378665123606 0  4.624999999995506 0.7604378665123606 0  4.499999999994019 1.013917155349814 0  5.99999999999997 0 0  6.249999999999971 0 0  6.124999999997403 0.2534792888376092 0  6.374999999997405 0.2534792888376092 0  6.499999999999972 0 0  6.249999999994837 0.5069585776752185 0  6.624999999997405 0.2534792888376092 0  6.499999999994838 0.5069585776752185 0  6.749999999994839 0.5069585776752185 0  6.749999999999972 0 0  6.874999999997407 0.2534792888376092 0  6.999999999999973 0 0  6.374999999992271 0.7604378665128277 0  6.624999999992271 0.7604378665128277 0  6.499999999989704 1.013917155350437 0  1.999999999999982 0 0  2.24999999999998 0 0  2.12499999999946 0.2613818370536612 0  2.374999999999459 0.2613818370536612 0  2.499999999999979 0 0  2.249999999998939 0.5227636741073225 0  2.624999999999457 0.2613818370536612 0  2.499999999998937 0.5227636741073225 0  2.749999999998935 0.5227636741073225 0  2.749999999999977 0 0  2.874999999999455 0.2613818370536612 0  2.999999999999975 0 0  2.374999999998417 0.7841455111609837 0  2.624999999998415 0.7841455111609837 0  2.499999999997895 1.045527348214645 0  1.999999999998379 2 0  1.74999999999856 2 0  1.874999999998781 1.716506350946107 0  1.624999999998962 1.716506350946107 0  1.499999999998741 2 0  1.749999999999184 1.433012701892215 0  1.374999999999143 1.716506350946107 0  1.499999999999365 1.433012701892215 0  1.249999999999545 1.433012701892215 0  1.249999999998922 2 0  1.124999999999324 1.716506350946107 0  0.9999999999991025 2 0  1.624999999999586 1.149519052838322 0  1.374999999999767 1.149519052838322 0  1.499999999999988 0.8660254037844294 0  7.999999999999975 0 0  8.249999999999975 0 0  8.124690294450405 0.261918262795331 0  8.374690294450405 0.261918262795331 0  8.499999999999975 0 0  8.249380588900834 0.523836525590662 0  8.624690294450405 0.261918262795331 0  8.499380588900834 0.523836525590662 0  8.749380588900834 0.523836525590662 0  8.749999999999975 0 0  8.874690294450406 0.261918262795331 0  8.999999999999977 0 0  8.374070883351264 0.785754788385993 0  8.624070883351264 0.785754788385993 0  8.498761177801693 1.047673051181324 0  18.99999999999849 2 0  18.74999999999811 2 0  18.87499999999887 1.71650635094611 0  18.62499999999849 1.71650635094611 0  18.49999999999773 2 0  18.74999999999925 1.433012701892219 0  18.37499999999811 1.71650635094611 0  18.49999999999887 1.433012701892219 0  18.24999999999849 1.433012701892219 0  18.24999999999736 2 0  18.12499999999773 1.71650635094611 0  17.99999999999698 2 0  18.62499999999962 1.149519052838329 0  18.37499999999925 1.149519052838329 0  18.5 0.8660254037844386 0  16.99999999999547 2 0  16.74999999999509 2 0  16.87499999999629 1.746520711162699 0  16.62499999999591 1.746520711162699 0  16.49999999999471 2 0  16.7499999999971 1.493041422325399 0  16.37499999999553 1.746520711162699 0  16.49999999999672 1.493041422325399 0  16.24999999999635 1.493041422325399 0  16.24999999999434 2 0  16.12499999999515 1.746520711162699 0  15.99999999999396 2 0  16.62499999999792 1.239562133488098 0  16.37499999999754 1.239562133488098 0  16.49999999999874 0.9860828446507974 0  12.99999999998939 2 0  12.74999999998901 2 0  12.87499999999136 1.74652071116254 0  12.62499999999098 1.74652071116254 0  12.49999999998862 2 0  12.74999999999334 1.49304142232508 0  12.3749999999906 1.74652071116254 0  12.49999999999295 1.49304142232508 0  12.24999999999257 1.49304142232508 0  12.24999999998824 2 0  12.12499999999022 1.74652071116254 0  11.99999999998786 2 0  12.62499999999531 1.239562133487619 0  12.37499999999493 1.239562133487619 0  12.49999999999728 0.9860828446501591 0  10.99999999998634 2 0  10.74999999998596 2 0  10.87439297711764 1.749732347235992 0  10.62439297711725 1.749732347235992 0  10.49999999998558 2 0  10.74878595424893 1.499464694471983 0  10.37439297711687 1.749732347235992 0  10.49878595424855 1.499464694471983 0  10.24878595424817 1.499464694471983 0  10.2499999999852 2 0  10.1243929771165 1.749732347235992 0  9.999999999984821 2 0  10.62317893138022 1.249197041707975 0  10.37317893137984 1.249197041707975 0  10.49757190851152 0.9989293889439668 0  14.99999999999243 2 0  14.74999999999205 2 0  14.87499999999383 1.74652071116262 0  14.62499999999345 1.74652071116262 0  14.49999999999167 2 0  14.74999999999522 1.493041422325239 0  14.37499999999307 1.74652071116262 0  14.49999999999484 1.493041422325239 0  14.24999999999446 1.493041422325239 0  14.24999999999129 2 0  14.12499999999268 1.74652071116262 0  13.99999999999091 2 0  14.62499999999661 1.239562133487858 0  14.37499999999624 1.239562133487858 0  14.49999999999801 0.9860828446504779 0  10.24702918641092 0.9928167955694513 0  10.12263620927924 1.24308444833346 0  9.996486464310319 0.986704202194936 0  9.998243232147571 1.493352101097468 0  9.872093487178645 1.236971854958944 0  9.747700510046972 1.487239507722953 0  9.873850255015896 1.743619753861476 0  9.74594374220972 0.9805916088204207 0  9.621550765078046 1.230859261584429 0  9.495401020109121 0.9744790154459053 0  9.749999999984439 2 0  9.623850255015515 1.743619753861476 0  9.499999999984059 2 0  9.373850255015135 1.743619753861476 0  9.497700510046592 1.487239507722953 0  9.24770051004621 1.487239507722953 0  9.249999999983679 2 0  9.123850255014755 1.743619753861476 0  8.999999999983299 2 0  9.371550765077664 1.230859261584429 0  3.999999999993654 2 0  3.749999999994383 2 0  3.874999999994342 1.744460791439874 0  3.624999999995071 1.744460791439874 0  3.499999999995112 2 0  3.74999999999503 1.488921582879748 0  3.3749999999958 1.744460791439874 0  3.499999999995759 1.488921582879748 0  3.249999999996488 1.488921582879748 0  3.249999999995841 2 0  3.124999999996529 1.744460791439874 0  2.99999999999657 2 0  3.624999999995718 1.233382374319621 0  3.374999999996447 1.233382374319621 0  3.499999999996406 0.9778431657594949 0  5.99999999998782 2 0  5.74999999998855 2 0  5.87499999998929 1.751159762945844 0  5.62499999999002 1.751159762945844 0  5.499999999989278 2 0  5.749999999990761 1.502319525891687 0  5.374999999990749 1.751159762945844 0  5.49999999999149 1.502319525891687 0  5.24999999999222 1.502319525891687 0  5.249999999990007 2 0  5.124999999991478 1.751159762945844 0  4.999999999990736 2 0  5.624999999992232 1.253479288837531 0  5.37499999999296 1.253479288837531 0  5.499999999993702 1.004639051783375 0  16.99999999999999 0 0  17.24999999999999 0 0  17.1249999999998 0.2593847116342085 0  17.37499999999981 0.2593847116342085 0  17.49999999999999 0 0  17.24999999999962 0.518769423268417 0  17.62499999999981 0.2593847116342085 0  17.49999999999962 0.518769423268417 0  17.74999999999962 0.518769423268417 0  17.75 0 0  17.87499999999981 0.2593847116342085 0  18 0 0  17.37499999999944 0.7781541349026255 0  17.62499999999944 0.7781541349026255 0  17.49999999999925 1.037538846536834 0  14.99999999999999 0 0  15.24999999999999 0 0  15.12499999999929 0.2488402370542198 0  15.37499999999929 0.2488402370542198 0  15.49999999999999 0 0  15.24999999999858 0.4976804741084396 0  15.62499999999929 0.2488402370542198 0  15.49999999999858 0.4976804741084396 0  15.74999999999858 0.4976804741084396 0  15.74999999999999 0 0  15.87499999999929 0.2488402370542198 0  15.99999999999999 0 0  15.37499999999788 0.7465207111626594 0  15.62499999999788 0.7465207111626594 0  15.49999999999718 0.9953609482168791 0  7.999999999982053 2 0  7.749999999982765 2 0  7.874963130275843 1.744524651647608 0  7.624963130276555 1.744524651647608 0  7.499999999983477 2 0  7.749926260569634 1.489049303295215 0  7.374963130277267 1.744524651647608 0  7.499926260570346 1.489049303295215 0  7.249926260571058 1.489049303295215 0  7.24999999998419 2 0  7.12496313027798 1.744524651647608 0  6.999999999984902 2 0  7.624889390863425 1.233573954942823 0  7.374889390864137 1.233573954942823 0  7.499852521157216 0.9780986065904302 0  12.99999999999999 0 0  13.24999999999999 0 0  13.12499999999898 0.2488402370541932 0  13.37499999999898 0.2488402370541932 0  13.49999999999999 0 0  13.24999999999796 0.4976804741083863 0  13.62499999999898 0.2488402370541932 0  13.49999999999796 0.4976804741083863 0  13.74999999999796 0.4976804741083863 0  13.74999999999999 0 0  13.87499999999898 0.2488402370541932 0  13.99999999999999 0 0  13.37499999999694 0.7465207111625796 0  13.62499999999694 0.7465207111625796 0  13.49999999999593 0.9953609482167727 0  10.99999999999998 0 0  11.24999999999998 0 0  11.12489882952011 0.2493755097330886 0  11.37489882952011 0.2493755097330886 0  11.49999999999998 0 0  11.24979765904023 0.4987510194661772 0  11.62489882952011 0.2493755097330886 0  11.49979765904023 0.4987510194661772 0  11.74979765904023 0.4987510194661772 0  11.74999999999998 0 0  11.87489882952011 0.2493755097330886 0  11.99999999999998 0 0  11.37469648856036 0.7481265291992658 0  11.62469648856036 0.7481265291992658 0  11.49959531808049 0.9975020389323543 0  6.749963130281582 1.004962518160435 0  6.874963130284149 0.751483229322826 0  6.99992626057346 0.9960078809704336 0  6.999963130286717 0.4980039404852168 0  7.124926260576027 0.7425285921328244 0  7.249926260578595 0.4890493032952151 0  7.124963130289284 0.2445246516476076 0  7.249889390865338 0.9870532437804319 0  7.374889390867905 0.7335739549428226 0  4.74999999999394 1.011597629458204 0  4.874999999995428 0.7581183406207508 0  4.999999999993861 1.009278103566595 0  4.999999999996
[...]
<PointData  Vectors="u"> 
<DataArray  type="Float64"  Name="u"  NumberOfComponents="3" format="ascii">-2.5370876147607594e-21 -4.4083596830313723e-21 -3.8467837631596807e-03  -2.8212225142578040e-21 -5.0325680705182300e-21 -4.2730728760161643e-03  -1.9381672701856868e-21 -4.7357307813971348e-21 -4.0417458602742479e-03  -2.0334689400783636e-21 -5.4048429919247758e-21 -4.4740448482180903e-03  -2.5710733174264214e-21 -5.7161725674367214e-21 -4.7141244677917013e-03  -1.6413070254070097e-21 -5.0238160172817403e-21 -4.2409993588746120e-03  -1.9385251401138131e-21 -5.9945888122256296e-21 -4.9206428584413582e-03  -1.5488757968580460e-21 -5.8257755155196384e-21 -4.6790061415191526e-03  -1.4831655156579758e-21 -6.4860389162817626e-21 -5.1309113133776816e-03  -2.8648750778963703e-21 -6.4285559999672414e-21 -5.1689640220104792e-03  -2.0894289459089718e-21 -6.7328134455672526e-21 -5.3806828685974079e-03  -2.9365588368513796e-21 -7.1836719284997890e-21 -5.6366884122063081e-03  -8.2103346710458694e-22 -5.7063006026717246e-21 -4.4467532084934841e-03  -8.7977111540825973e-22 -6.2452607198900206e-21 -4.8905472577662973e-03  -1.4259062196505290e-22 -5.8453675775647745e-21 -4.6620173276937871e-03  -3.7369115332893285e-21 -1.0348113044397898e-20 -7.6216776791734487e-03  -3.3680639537684114e-21 -1.1654682101609042e-20 -8.1435583209170451e-03  -2.5926307707840143e-21 -1.1350522791220786e-20 -7.8590776310983410e-03  -2.6800083095965459e-21 -1.1890434506594178e-20 -8.3869511206839786e-03  -3.2536255373469272e-21 -1.1821670388782225e-20 -8.6747582494826787e-03  -1.4768744990769907e-21 -1.1156923795058639e-20 -8.1009878286677529e-03  -2.4558908257428789e-21 -1.1983600948328463e-20 -8.9246273020587245e-03  -1.3428759348899173e-21 -1.1862696134086046e-20 -8.6354816262924784e-03  -1.4723704343255681e-21 -1.2744231474677280e-20 -9.1803821795914745e-03  -3.4196349183600487e-21 -1.2749292374658870e-20 -9.2148221115943372e-03  -2.3603695953905368e-21 -1.3580814981806072e-20 -9.4716149416115437e-03  -2.9289487073844857e-21 -1.3740084222254589e-20 -9.7632193505198719e-03  -4.8878859436806443e-22 -1.1709630629120049e-20 -8.3520048810819102e-03  -5.8232988383803941e-22 -1.1873536134916277e-20 -8.8937624103493131e-03  -4.4853952277737628e-22 -1.1673781740543780e-20 -8.6163796588727571e-03  -1.0533467174846731e-21 -6.7468274753424735e-22 -1.1009584508313729e-03  -1.5736463365749508e-21 -9.5412253554032416e-22 -1.3683133845851232e-03  -1.0432415638623507e-21 -7.4540166097648566e-22 -1.2233820016477189e-03  -1.4690540189274438e-21 -9.9841336667940758e-22 -1.5024259929540859e-03  -2.4886660821544230e-21 -1.2083375926127734e-21 -1.6599120425143401e-03  -7.0271538289701077e-22 -8.5620496535085419e-22 -1.3534251381739019e-03  -1.3418544422093726e-21 -1.6550219970249308e-21 -1.8049183677604499e-03  -8.7994214763744495e-22 -1.3468537997904897e-21 -1.6437152339802796e-03  -1.0457628087623182e-21 -1.9528117539200158e-21 -1.9566702172477816e-03  -2.2883906572780931e-21 -2.0117993500244574e-21 -1.9744061685865993e-03  -1.7002281801119028e-21 -2.2108988504408436e-21 -2.1295224809023705e-03  -2.3580509288183021e-21 -2.5810085114972721e-21 -2.3104950206359631e-03  -2.5933233171527428e-22 -1.1868336098147387e-21 -1.4912721677688724e-03  -6.7500829367913499e-23 -1.5781108555753268e-21 -1.7925487911762189e-03  8.1179273391025254e-23 -1.5269976506105913e-21 -1.6373006090772827e-03  1.6197502080612170e-21 -6.7578659960140105e-22 -1.0954180506134148e-03  1.0533368585351943e-21 -1.5226031281606440e-22 -8.5395146751268865e-04  4.2475747329962033e-22 -5.1788165501319120e-22 -9.6486099651208368e-04  1.9275915863011439e-22 -2.2988933391601235e-22 -7.3714316074993539e-04  1.7796612668296612e-22 -2.9596908532788715e-22 -6.3947193465960293e-04  -2.7521196028045532e-22 -3.8993505306083559e-22 -8.4354613051986600e-04  -7.0546601483568741e-23 -2.4214734400000164e-22 -5.3713159901548179e-04  -2.6263786392095454e-22 -3.0199003935983668e-22 -6.2989869123802238e-04  -7.8349924404496838e-22 -1.7202500608673991e-22 -4.4473958612707562e-04  3.7227021830834856e-22 -1.0684864636030840e-23 -4.5344723003455081e-04  1.2538491179472324e-22 1.2630864288425509e-22 -3.6635253526794609e-04  7.5272677681776504e-23 -6.6758540768331075e-23 -2.9739284004003878e-04  3.8193871157583155e-24 -4.0144543229872332e-22 -7.3158632112813547e-04  -3.5435755133918975e-22 -2.6677195696967243e-22 -5.3225570128118853e-04  -2.1475451149840247e-22 -2.4162420884356497e-22 -6.2879020783363469e-04  -2.0275779925253183e-21 -1.5106092802468750e-20 -1.2024382054619717e-02  -2.4922152584718476e-21 -1.4310496679636977e-20 -1.2601629640843997e-02  -1.9780644356082990e-21 -1.4353035731737626e-20 -1.2316743597453725e-02  -1.3401230578901824e-21 -1.3640436292195213e-20 -1.2899569653879664e-02  -1.5541319883001901e-21 -1.3631023390228841e-20 -1.3181206132254221e-02  -1.5427723808818859e-21 -1.3640012197530674e-20 -1.2617359655968476e-02  -1.7829274690292947e-21 -1.3084112442494816e-20 -1.3483671430594205e-02  -1.9693581945793923e-21 -1.3091553005798792e-20 -1.3205196901823500e-02  -1.5278695473475556e-21 -1.2992243023163579e-20 -1.3792860404321452e-02  -1.6571436886329208e-21 -1.2472301513491452e-20 -1.3761966253302478e-02  -7.4443933007620093e-22 -1.2578173506535905e-20 -1.4067741955580970e-02  -1.5223033641830843e-21 -1.2296129829094751e-20 -1.4342915717076448e-02  -6.2650747232943084e-22 -1.3222314874381004e-20 -1.2922996317978538e-02  -5.7474862017044765e-22 -1.3033254407226167e-20 -1.3513689609053010e-02  -5.1661343021880328e-22 -1.2849677532801415e-20 -1.3222851289761315e-02  4.6754832496246297e-21 -5.1680018615172821e-20 -3.6966962948096718e-02  4.5829069148191237e-21 -4.9711563585445740e-20 -3.6410530783755030e-02  2.9514562604687927e-21 -5.0728428619119226e-20 -3.6728100732497423e-02  2.9009783042618449e-21 -4.8773785832918749e-20 -3.6166775207683056e-02  5.0380300975273051e-21 -4.7721079375803950e-20 -3.5851266220368397e-02  1.2214743026273904e-21 -4.9941528963554281e-20 -3.6477868406595212e-02  3.1589875528784575e-21 -4.7189404058201828e-20 -3.5603574274058143e-02  1.2749129846894073e-21 -4.8123263858607918e-20 -3.5912246913204542e-02  1.0572901996240654e-21 -4.6278075841181846e-20 -3.5348265405908366e-02  4.7908495965299152e-21 -4.6068731478097996e-20 -3.5288393760473200e-02  3.0895196380008495e-21 -4.5441886193164271e-20 -3.5039430366653114e-02  4.6215945425820655e-21 -4.4618909027793943e-20 -3.4724876148347121e-02  -6.5308082925571658e-22 -4.8962497649542663e-20 -3.6208950495715937e-02  -6.8259315197676927e-22 -4.7330004136297759e-20 -3.5642136175925557e-02  -2.3862344417810420e-21 -4.8078652007360961e-20 -3.5916219285407502e-02  4.6733796170227502e-21 -3.9193180552274705e-20 -3.2504544405932478e-02  4.6610115127047697e-21 -3.7421529571898696e-20 -3.1952753102898024e-02  2.5266733687900080e-21 -3.8200918745957580e-20 -3.2247823905969510e-02  2.4414009021609673e-21 -3.6833966175526385e-20 -3.1694596136726066e-02  4.3818525713663609e-21 -3.5502927668113752e-20 -3.1400416324324928e-02  9.7464252672735320e-22 -3.7763176499737693e-20 -3.1988423567402863e-02  2.3619386267082923e-21 -3.4946428451861243e-20 -3.1141022542868400e-02  8.7217453381789658e-22 -3.6576647534622875e-20 -3.1434057610310227e-02  9.9968368122458060e-22 -3.4989723237480441e-20 -3.0879651730840198e-02  3.8354649675214361e-21 -3.4908813909060985e-20 -3.0847390976989256e-02  1.8642301367985709e-21 -3.3799421024995666e-20 -3.0586973583550964e-02  3.4965276017610989e-21 -3.3535235945272812e-20 -3.0293570967642708e-02  -4.3300849966266529e-22 -3.7056598549197321e-20 -3.1719914583556143e-02  -3.9126303772955552e-22 -3.5773342923321677e-20 -3.1165081429319327e-02  -1.7278819737935158e-21 -3.6419025054160068e-20 -3.1437127962354219e-02  8.6073531085396617e-22 -2.0064545777612356e-20 -2.3543378516403250e-02  5.7168880458436055e-22 -1.9991504726386421e-20 -2.2973288836565058e-02  3.4103368837143792e-22 -2.0075659738257348e-20 -2.3273453287723688e-02  3.3877235095380323e-22 -2.0001264351212899e-20 -2.2703240300054578e-02  8.7697299874890009e-22 -1.9629853908883591e-20 -2.2402819695555604e-02  -1.5248826959119044e-22 -2.0647894531308799e-20 -2.3003663381369298e-02  5.5097004526907430e-22 -1.8838629633001370e-20 -2.2132865302294892e-02  -3.3031744797025629e-22 -1.9752234153648247e-20 -2.2433547245374930e-02  -2.7645422204791187e-22 -1.8808844025978168e-20 -2.1863478883668717e-02  6.4202004449142547e-22 -1.9228631996424630e-20 -2.1832126960420487e-02  6.8802677201506042e-22 -1.9352632442271934e-20 -2.1562431357767659e-02  8.8758273228753223e-22 -1.9112420978489131e-20 -2.1261290209702102e-02  -1.0081434750081202e-21 -1.9897923717172397e-20 -2.2728967643806830e-02  -8.7975351780566546e-22 -1.9334588147847589e-20 -2.2159167106386098e-02  -1.2933919696086109e-21 -1.9815176341938878e-20 -2.2443465117534995e-02  1.0618104025945407e-21 -1.8305826999669601e-20 -1.8975103082491281e-02  6.2413169982814056e-22 -1.7356206067476686e-20 -1.8402013486983268e-02  3.7468107318470890e-22 -1.7914684106333478e-20 -1.8705263494162298e-02  4.8351734409042112e-22 -1.6867462914299367e-20 -1.8132150543225353e-02  -2.5838820390524125e-22 -1.7617161934528117e-20 -1.7827899399398692e-02  3.0604022739483768e-24 -1.7265086252879355e-20 -1.8436511764413448e-02  1.1108091862570802e-21 -1.7527758687232097e-20 -1.7557787920608393e-02  4.5110771474264082e-22 -1.7747632720821437e-20 -1.7863333940322777e-02  6.3582809110793249e-22 -1.7602025335780084e-20 -1.7288645879104145e-02  1.4091861815586478e-22 -1.8306970271967256e-20 -1.7252548138550764e-02  6.4409123886588212e-22 -1.7464441114945788e-20 -1.6981901558921379e-02  3.5824580248516597e-22 -1.7553023131906109e-20 -1.6675731920420277e-02  4.8112186951485310e-23 -1.7580804848091141e-20 -1.8163517281793502e-02  -3.0957692042646014e-23 -1.7475127694138009e-20 -1.7590198952325886e-02  -7.1958649523481213e-22 -1.7399546369921205e-20 -1.7879227974498639e-02  3.3169358242632081e-21 -2.8009833989764355e-20 -2.8067136105971138e-02  2.4171476249915986e-21 -2.5274178894316778e-20 -2.7506842192199302e-02  6.8754964174337253e-22 -2.6848663127022878e-20 -2.7802525867019576e-02  7.4918726161705241e-22 -2.5923786864738617e-20 -2.7241403641780789e-02  2.1373127276322865e-21 -2.5777090047541721e-20 -2.6944850738575263e-02  6.7811834482512546e-22 -2.6343110197590224e-20 -2.7537060133526938e-02  4.5921929327668989e-22 -2.5173208068116042e-20 -2.6678606551434406e-02  8.6679733582169176e-22 -2.5198649877293007e-20 -2.6975221939187232e-02  8.2449643044957661e-22 -2.4366505497280423e-20 -2.6411752888894302e-02  2.3094964342944790e-21 -2.4762696374695700e-20 -2.6381207560178286e-02  2.8606148781647485e-22 -2.3960021940843958e-20 -2.6114203504847923e-02  2.0450731927562010e-21 -2.3654531962942498e-20 -2.5816016325775019e-02  -1.8701495821020155e-22 -2.5995694379369552e-20 -2.7265096670419414e-02  -1.3655282636815479e-22 -2.4972663222837741e-20 -2.6702716260782862e-02  -1.3872563006835562e-21 -2.5403802302128186e-20 -2.6980681678246122e-02  -6.3101163799746442e-22 -1.7239853759792464e-20 -1.7304192380308218e-02  1.9089014674578178e-22 -1.7033820923670531e-20 -1.7014120630947725e-02  -7.4867752029597837e-22 -1.6315336449742127e-20 -1.6727117838501053e-02  4.7194612350221077e-22 -1.6913152916238269e-20 -1.6711368344925117e-02  -1.1075914696384001e-22 -1.6035945490087030e-20 -1.6435934764045285e-02  5.0013136693442493e-22 -1.5864806359740016e-20 -1.6132056288115700e-02  7.4024812763322179e-22 -1.6858868662334755e-20 -1.6403512402822087e-02  -6.5542542259954503e-22 -1.5163250591361368e-20 -1.6147621367789654e-02  4.6331129436784441e-23 -1.4798515103816382e-20 -1.5855334854834608e-02  -6.9854194497683322e-22 -1.3822142213421689e-20 -1.5565384427799409e-02  9.2609750779604320e-22 -1.6641366161517373e-20 -1.6097322906529838e-02  7.6365852466999862e-22 -1.5997784964688262e-20 -1.5823959922733909e-02  1.2339889126394261e-21 -1.5578794204070892e-20 -1.5517254045706679e-02  4.1194021786354386e-22 -1.3654866722556452e-20 -1.5242322162428266e-02  5.1501634978145302e-22 -1.4135295073454704e-20 -1.5551215910397452e-02  2.3568412192251472e-22 -1.2869229414520324e-20 -1.4967784246271463e-02  1.5044632104451358e-21 -1.3073612999711793e-20 -1.4935690570755738e-02  -5.1714977577582613e-22 -1.2994394663315900e-20 -1.4658767615263260e-02  1.5068057046421357e-21 -1.1821616678758104e-20 -1.4353066080389306e-02  -1.6482848986081729e-22 -1.3093608340394073e-20 -1.5272997354556452e-02  2.5148233267816563e-21 -4.4766505237149628e-21 -3.8381087744236626e-03  2.4362976516619553e-21 -3.9515135688457760e-21 -3.4278202660106183e-03  1.7810210828065454e-21 -4.2391429220242148e-21 -3.6180665373294731e-03  1.7050323398118128e-21 -3.6535183527918184e-21 -3.2174604015639380e-03  1.9550386284939787e-21 -3.4196402346393239e-21 -3.0344831696720283e-03  1.1082352170250359e-21 -4.0239723058650809e-21 -3.4056093402073493e-03  1.4390176361442761e-21 -3.2244472390111556e-21 -2.8342259333460382e-03  9.4010851996162472e-22 -3.4124627570927904e-21 -3.0147981224785373e-03  8.5422765566735028e-22 -2.8021426460915091e-21 -2.6417497787507046e-03  1.9090893257225202e-21 -2.9542913653723930e-21 -2.6592241769501051e-03  1.1315927140220532e-21 -2.5220524573851381e-21 -2.4694816821864357e-03  1.6965730474476186e-21 -2.2508998096548395e-21 -2.3032002245816589e-03  4.5826297701615411e-22 -3.7137541993789767e-21 -3.2022156931375964e-03  4.0509580348547212e-22 -3.0939257122471297e-21 -2.8209853454618451e-03  -1.6443341944379779e-22 -3.3954634233713516e-21 -3.0084834011816089e-03  2.7443509921341601e-21 -9.9080193855757366e-21 -7.6151239182962417e-03  2.4470041932024894e-21 -9.0805399280316648e-21 -7.1023630253037370e-03  1.8202648634491935e-21 -9.1720566837883016e-21 -7.3363941369223437e-03  1.8624642865320838e-21 -8.7046922847348147e-21 -6.8288079369394714e-03  2.3270083402117981e-21 -8.5548525975114498e-21 -6.5999277875044750e-03  1.4208903329003352e-21 -9.0514354106425743e-21 -7.0613651566291498e-03  2.0291191816397229e-21 -8.1906803369584576e-21 -6.3322775121158071e-03  1.5242013702525741e-21 -8.3000553241349155e-21 -6.5597295616848066e-03  1.4478336725452774e-21 -7.8020283740145618e-21 -6.0698197302749444e-03  2.4404657372935662e-21 -7.9514393816574176e-21 -6.1083489027304611e-03  1.9831997780114848e-21 -7.7777517523097873e-21 -5.8472805425293407e-03  2.6668829497619829e-21 -7.5682911491358833e-21 -5.6282415772598128e-03  6.9938571727685103e-22 -8.5857404452107270e-21 -6.7944687085223984e-03  5.1661095818138115e-22 -8.0078291475255062e-21 -6.2993360601682792e-03  -1.0037523670509287e-22 -8.1800698067705709e-21 -6.5405808267590638e-03  -7.9918676489433795e-21 -3.8608851726866041e-20 -3.2415672553620871e-02  -8.1328545729810282e-21 -4.0620706866642124e-20 -3.2967076265879823e-02  -6.1641827758670213e-21 -3.9424053133669640e-20 -3.2732633274279790e-02  -6.2622361919806146e-21 -4.0971869273364428e-20 -3.3286714578922898e-02  -8.1687478012571441e-21 -4.1943277735613114e-20 -3.3518168188885783e-02  -4.8859947579571112e-21 -4.0437361157004119e-20 -3.3052715771529510e-02  -6.2707720476848545e-21 -4.2923971827648981e-20 -3.3840812299380581e-02  -4.2251149306566028e-21 -4.2118147904717903e-20 -3.3609427559863896e-02  -4.6224112964453762e-21 -4.3528679642626408e-20 -3.4167418865286910e-02  -8.4056198561356538e-21 -4.4110666229015213e-20 -3.4068462244676641e-02  -6.6741940542571097e-21 -4.4401817140811806e-20 -3.4394825954272450e-02  -8.5176808948510937e-21 -4.4844405494018313e-20 -3.4618734067723665e-02  -2.9920239238337438e-21 -4.1375389841941082e-20 -3.3366593316701068e-02  -2.9641489291001748e-21 -4.2707787993156129e-20 -3.3926109264765823e-02  -1.4633658639940721e-21 -4.2052853658269633e-20 -3.3665918742031259e-02  -6.0457927891675087e-21 -2.7280941861365190e-20 -2.7995846051977556e-02  -6.1788340483869655e-21 -2.8401503281484391e-20 -2.8552009752309815e-02  -4.5802531636545186e-21 -2.8408428197416855e-20 -2.8303888952571018e-02  -4.6176732084227334e-21 -2.9647728359619187e-20 -2.8859962613412275e-02  -6.4833527337817359e-21 -3.0182159020602987e-20 -2.9106679665975650e-02  -3.2898427926193581e-21 -2.9378093483761702e-20 -2.8614453119412634e-02  -4.8051253664195997e-21 -3.1208900987666693e-20 -2.9414631445873179e-02  -3.5920275084740181e-21 -3.0742613389321933e-20 -2.9170439523832314e-02  -3.9973797392519883e-21 -3.2006965651284087e-20 -2.9725256996795141e-02  -6.5251702725318648e-21 -3.2394561464638285e-20 -2.9659942423918031e-02  -5.6969013444385601e-21 -3.2923114950748124e-20 -2.9968096678167581e-02  -6.8869498492354908e-21 -3.3944680593830503e-20 -3.0211996852806317e-02  -2.6400095090922401e-21 -2.9936897807299286e-20 -2.8921455734171139e-02  -2.8385358859767681e-21 -3.1462176572205034e-20 -2.9477413796596234e-02  -1.4830157197747826e-21 -3.0659078020195206e-20 -2.9217193349243272e-02  1.7459358962325370e-21 -1.3395140340986759e-20 -1.2027394322523706e-02  1.9452539435785907e-21 -1.3120607843348062e-20 -1.1452167491334053e-02  1.1740396749187167e-21 -1.3608627415370478e-20 -1.1738437246940882e-02  1.7567558443347083e-21 -1.3075079867168403e-20 -1.1161311138295892e-02  2.2340304897713413e-21 -1.3231651696067092e-20 -1.0881868460574285e-02  -5.0800257217059344e-23 -1.3385604413795370e-20 -1.1449074553038657e-02  1.7880282489113986e-21 -1.3588691858439112e-20 -1.0589824575493241e-02  1.9885879488523605e-22 -1.3228985515464392e-20 -1.0870047344609489e-02  3.6428379915516440e-22 -1.3175617471842194e-20 -1.0297634823986660e-02  2.8908912089881538e-21 -1.3432425648918214e-20 -1.0317588641250377e-02  2.3558008274391501e-21 -1.2957914154464677e-20 -1.0025288220458301e-02  2.7236753490549091e-21 -1.3101171624233574e-20 -9.7602795677851246e-03  -4.1467786160481202e-22 -1.3493834541568366e-20 -1.1160127602150016e-02  -2.8584325311561738e-22 -1.3415424249434979e-20 -1.0580452675992186e-02  -4.6658268905403948e-22 -1.3591158784395867e-20 -1.0869986591855381e-02  -5.5621020522197457e-21 -2.0695351219475032e-20 -2.3494846144344064e-02  -5.3321380870263872e-21 -2.0735072961228970e-20 -2.4061614717235915e-02  -4.8983204290671733e-21 -2.0454912859106846e-20 -2.3803032942565503e-02  -4.6343285203288259e-21 -2.2152545346397393e-20 -2.4370069836421447e-02  -5.4538435056518379e-21 -2.2043480750270074e-20 -2.4627562578279482e-02  -2.5141963315611295e-21 -2.2012277293484074e-20 -2.4113961514804931e-02  -4.4462002108362327e-21 -2.2330095116442565e-20 -2.4936136209318588e-02  -3.1177574659971292e-21 -2.1997581784945097e-20 -2.4681291610029209e-02  -2.8486049994192943e-21 -2.3429155131421574e-20 -2.5247399336012322e-02  -5.6419528500998188e-21 -2.3492133491441233e-20 -2.5192436411725121e-02  -4.5007843401188785e-21 -2.3149175295458821e-20 -2.5500972519582017e-02  -5.4116051649626723e-21 -2.2512896868853074e-20 -2.5756031471037336e-02  -2.0793512961419806e-21 -2.1839690887125777e-20 -2.4422739830291373e-02  -2.0138238734238814e-21 -2.2657453504474140e-20 -2.4990229075093368e-02  -1.2867031930830777e-21 -2.1993050841519269e-20 -2.4721527172611786e-02  -2.6090777898789721e-21 -1.7916937402012036e-20 -1.8947624197826883e-02  -2.8772094963964888e-21 -1.9020392712724158e-20 -1.9517538319837775e-02  -2.2608518954716549e-21 -1.8665502503324570e-20 -1.9255357129157775e-02  -2.2562478527085575e-21 -1.9697603414439864e-20 -1.9824795432862918e-02  -2.6781195066072600e-21 -1.9799348619960567e-20 -2.0086755222004600e-02  -1.6705859551519832e-21 -1.8943987723054541e-20 -1.9564576131026738e-02  -2.8643938964752693e-21 -1.9379795327226965e-20 -2.0393676544718957e-02  -2.2067655328467248e-21 -1.8468794416239274e-20 -2.0133663404779817e-02  -2.2823200064689300e-21 -1.7621278564315699e-20 -2.0702357855774525e-02  -3.2693624453737100e-21 -1.9292214722656823e-20 -2.0655466008995350e-02  -3.5450905101385637e-21 -1.8333443883779674e-20 -2.0962196846438769e-02  -3.9238175552178596e-21 -1.8232003935734961e-20 -2.1223812313628486e-02  -1.3088546420475888e-21 -1.8651965282661047e-20 -1.9870483484814853e-02  -1.3510494627265579e-21 -1.8053011155131358e-20 -2.0439457256615320e-02  -1.1243484649696