<?xml version="1.0"?>
<VTKFile type="UnstructuredGrid"  version="0.1"  >
<UnstructuredGrid>
<Piece  NumberOfPoints="394" NumberOfCells="690">
<Points>
<DataArray  type="Float64"  NumberOfComponents="3"  format="ascii">18.99999999999849 2 0  18.74999999999811 2 0  18.87499999999887 1.71650635094611 0  18.62499999999849 1.71650635094611 0  18.49999999999773 2 0  18.74999999999925 1.433012701892219 0  18.37499999999811 1.71650635094611 0  18.49999999999887 1.433012701892219 0  18.24999999999849 1.433012701892219 0  18.24999999999736 2 0  18.12499999999773 1.71650635094611 0  17.99999999999698 2 0  18.62499999999962 1.149519052838329 0  18.37499999999925 1.149519052838329 0  18.5 0.8660254037844386 0  16.99999999999547 2 0  16.74999999999509 2 0  16.87499999999629 1.746520711162699 0  16.62499999999591 1.746520711162699 0  16.49999999999471 2 0  16.7499999999971 1.493041422325399 0  16.37499999999553 1.746520711162699 0  16.49999999999672 1.493041422325399 0  16.24999999999635 1.493041422325399 0  16.24999999999434 2 0  16.12499999999515 1.746520711162699 0  15.99999999999396 2 0  16.62499999999792 1.239562133488098 0  16.37499999999754 1.239562133488098 0  16.49999999999874 0.9860828446507974 0  12.99999999998939 2 0  12.74999999998901 2 0  12.87499999999136 1.74652071116254 0  12.62499999999098 1.74652071116254 0  12.49999999998862 2 0  12.74999999999334 1.49304142232508 0  12.3749999999906 1.74652071116254 0  12.49999999999295 1.49304142232508 0  12.24999999999257 1.49304142232508 0  12.24999999998824 2 0  12.12499999999022 1.74652071116254 0  11.99999999998786 2 0  12.62499999999531 1.239562133487619 0  12.37499999999493 1.239562133487619 0  12.49999999999728 0.9860828446501591 0  10.99999999998634 2 0  10.74999999998596 2 0  10.87439297711764 1.749732347235992 0  10.62439297711725 1.749732347235992 0  10.49999999998558 2 0  10.74878595424893 1.499464694471983 0  10.37439297711687 1.749732347235992 0  10.49878595424855 1.499464694471983 0  10.24878595424817 1.499464694471983 0  10.2499999999852 2 0  10.1243929771165 1.749732347235992 0  9.999999999984821 2 0  10.62317893138022 1.249197041707975 0  10.37317893137984 1.249197041707975 0  10.49757190851152 0.9989293889439668 0  14.99999999999243 2 0  14.74999999999205 2 0  14.87499999999383 1.74652071116262 0  14.62499999999345 1.74652071116262 0  14.49999999999167 2 0  14.74999999999522 1.493041422325239 0  14.37499999999307 1.74652071116262 0  14.49999999999484 1.493041422325239 0  14.24999999999446 1.493041422325239 0  14.24999999999129 2 0  14.12499999999268 1.74652071116262 0  13.99999999999091 2 0  14.62499999999661 1.239562133487858 0  14.37499999999624 1.239562133487858 0  14.49999999999801 0.9860828446504779 0  10.24702918641092 0.9928167955694513 0  10.12263620927924 1.24308444833346 0  9.996486464310319 0.986704202194936 0  9.998243232147571 1.493352101097468 0  9.872093487178645 1.236971854958944 0  9.873850255015896 1.743619753861476 0  16.99999999999999 0 0  17.24999999999999 0 0  17.1249999999998 0.2593847116342085 0  17.37499999999981 0.2593847116342085 0  17.49999999999999 0 0  17.24999999999962 0.518769423268417 0  17.62499999999981 0.2593847116342085 0  17.49999999999962 0.518769423268417 0  17.74999999999962 0.518769423268417 0  17.75 0 0  17.87499999999981 0.2593847116342085 0  18 0 0  17.37499999999944 0.7781541349026255 0  17.62499999999944 0.7781541349026255 0  17.49999999999925 1.037538846536834 0  14.99999999999999 0 0  15.24999999999999 0 0  15.12499999999929 0.2488402370542198 0  15.37499999999929 0.2488402370542198 0  15.49999999999999 0 0  15.24999999999858 0.4976804741084396 0  15.62499999999929 0.2488402370542198 0  15.49999999999858 0.4976804741084396 0  15.74999999999858 0.4976804741084396 0  15.74999999999999 0 0  15.87499999999929 0.2488402370542198 0  15.99999999999999 0 0  15.37499999999788 0.7465207111626594 0  15.62499999999788 0.7465207111626594 0  15.49999999999718 0.9953609482168791 0  12.99999999999999 0 0  13.24999999999999 0 0  13.12499999999898 0.2488402370541932 0  13.37499999999898 0.2488402370541932 0  13.49999999999999 0 0  13.24999999999796 0.4976804741083863 0  13.62499999999898 0.2488402370541932 0  13.49999999999796 0.4976804741083863 0  13.74999999999796 0.4976804741083863 0  13.74999999999999 0 0  13.87499999999898 0.2488402370541932 0  13.99999999999999 0 0  13.37499999999694 0.7465207111625796 0  13.62499999999694 0.7465207111625796 0  13.49999999999593 0.9953609482167727 0  10.99999999999998 0 0  11.24999999999998 0 0  11.12489882952011 0.2493755097330886 0  11.37489882952011 0.2493755097330886 0  11.49999999999998 0 0  11.24979765904023 0.4987510194661772 0  11.62489882952011 0.2493755097330886 0  11.49979765904023 0.4987510194661772 0  11.74979765904023 0.4987510194661772 0  11.74999999999998 0 0  11.87489882952011 0.2493755097330886 0  11.99999999999998 0 0  11.37469648856036 0.7481265291992658 0  11.62469648856036 0.7481265291992658 0  11.49959531808049 0.9975020389323543 0  12.24989882951808 0.9889376432207079 0  12.12489882951573 1.242416932058168 0  11.99979765903888 0.9917924417912567 0  11.99989882951337 1.495896220895628 0  11.87479765903653 1.245271730628717 0  11.74979765903418 1.498751019466177 0  11.87489882951102 1.749375509733089 0  11.74969648855969 0.9946472403618055 0  11.62469648855733 1.248126529199266 0  14.24999999999749 0.9884023705420516 0  14.12499999999572 1.241881659379432 0  13.99999999999697 0.9907218964336253 0  13.99999999999394 1.495360948216813 0  13.87499999999519 1.244201185271006 0  13.74999999999342 1.497680474108386 0  13.87499999999217 1.748840237054193 0  13.74999999999645 0.993041422325199 0  13.62499999999467 1.246520711162579 0  16.24999999999835 0.9884023705423178 0  16.12499999999715 1.241881659379618 0  15.99999999999796 0.9907218964338382 0  15.99999999999596 1.495360948216919 0  15.87499999999676 1.244201185271139 0  15.74999999999557 1.49768047410844 0  15.87499999999477 1.74884023705422 0  15.74999999999757 0.9930414223253587 0  15.62499999999637 1.246520711162659 0  18.24999999999981 0.9089037644725375 0  18.12499999999905 1.192397413526428 0  17.99999999999962 0.9517821251606363 0  17.9999999999983 1.475891062580318 0  17.87499999999887 1.235275774214527 0  17.74999999999812 1.518769423268417 0  17.87499999999755 1.759384711634209 0  17.74999999999944 0.9946604858487351 0  17.62499999999869 1.278154134902626 0  17.12499999999642 1.759384711634209 0  16.99999999999723 1.505905422796908 0  17.24999999999736 1.518769423268417 0  16.87499999999805 1.252426133959607 0  17.12499999999818 1.265290134431116 0  16.99999999999899 1.011810845593816 0  16.74999999999887 0.9989468451223066 0  17.37499999999831 1.278154134902626 0  17.24999999999912 1.024674846065325 0  15.12499999999362 1.74884023705422 0  14.99999999999501 1.495360948216839 0  15.2499999999948 1.49768047410844 0  14.87499999999641 1.241881659379459 0  15.1249999999962 1.244201185271059 0  14.99999999999759 0.9907218964336786 0  14.7499999999978 0.9884023705420782 0  15.37499999999599 1.246520711162659 0  15.24999999999739 0.9930414223252788 0  13.12499999999103 1.748840237054193 0  12.999999999993 1.495360948216733 0  13.24999999999266 1.497680474108386 0  12.87499999999497 1.241881659379273 0  13.12499999999463 1.244201185270926 0  12.99999999999661 0.9907218964334659 0  12.74999999999694 0.9884023705418125 0  13.37499999999429 1.246520711162579 0  13.24999999999627 0.9930414223251193 0  11.12489882950988 1.749375509733089 0  10.99929180664117 1.49910785696908 0  11.24979765903342 1.498751019466177 0  10.87368478377247 1.248840204205072 0  11.12419063616471 1.248483366702169 0  10.998583613296 0.9982157139381606 0  10.74807776090376 0.9985725514410637 0  11.37469648855695 1.248126529199266 0  11.24908946568825 0.9978588764352574 0  16.62499999999905 0.7395621334880981 0  16.87499999999918 0.7524261339596072 0  16.74999999999936 0.4930414223253987 0  16.99999999999949 0.5059054227969079 0  17.12499999999931 0.7652901344311164 0  16.87499999999968 0.2465207111626994 0  18.125 0.2165063509461096 0  17.99999999999981 0.4758910625803182 0  18.25 0.4330127018922193 0  18.12499999999981 0.6923974135264278 0  17.87499999999962 0.7352757742145266 0  18.375 0.649519052838329 0  16.12499999999968 0.2465207111626994 0  15.99999999999897 0.4953609482169191 0  16.24999999999936 0.4930414223253987 0  16.12499999999866 0.7418816593796185 0  15.87499999999827 0.7442011852711389 0  16.37499999999905 0.7395621334880981 0  14.6249999999985 0.7395621334878584 0  14.8749999999983 0.7418816593794588 0  14.749999999999 0.493041422325239 0  14.99999999999879 0.4953609482168393 0  15.12499999999809 0.7442011852710591 0  14.8749999999995 0.2465207111626195 0  14.1249999999995 0.2465207111626195 0  13.99999999999848 0.4953609482168126 0  14.249999999999 0.493041422325239 0  14.12499999999799 0.7418816593794322 0  13.87499999999747 0.7442011852710058 0  14.3749999999985 0.7395621334878584 0  12.62499999999796 0.7395621334876192 0  12.87499999999762 0.7418816593792728 0  12.74999999999864 0.4930414223250795 0  12.9999999999983 0.4953609482167329 0  13.12499999999728 0.744201185270926 0  12.87499999999931 0.2465207111625398 0  12.12499999999931 0.2465207111625398 0  11.99989882951943 0.4958962208956283 0  12.24999999999863 0.4930414223250795 0  12.12489882951876 0.7424169320581682 0  11.87479765903956 0.7452717306287169 0  12.37499999999796 0.7395621334876192 0  10.62317893138363 0.7491970417079751 0  10.87368478377588 0.7488402042050719 0  10.74878595425575 0.4994646944719834 0  10.99929180664799 0.4991078569690803 0  11.12419063616812 0.7484833667021689 0  10.87439297712787 0.2497323472359917 0  19.08563708345907 1.816579429209366 0  18.96063708345945 1.533085780155476 0  19.17127416691965 1.633158858418732 0  18.83563708345983 1.249592131101585 0  19.04627416692003 1.349665209364842 0  18.9212741669204 1.066171560310951 0  18.7106370834602 0.9660984820476949 0  19.25691125038023 1.449738287628098 0  19.13191125038061 1.166
[...]
<PointData  Vectors="u"> 
<DataArray  type="Float64"  Name="u"  NumberOfComponents="3" format="ascii">2.9178548651743521e-21 -3.9276275197693859e-20 -3.4781870024599474e-03  2.9180259272981150e-21 -3.8382506642555768e-20 -3.3774465959119791e-03  1.9052518628500204e-21 -3.8829700873583572e-20 -3.4070412283305628e-03  1.9044998963982742e-21 -3.7935568711849746e-20 -3.3080112501204886e-03  2.9172463709819225e-21 -3.7488482220690923e-20 -3.2803362918775105e-03  8.9383247984135385e-22 -3.8383665091442035e-20 -3.3390905788440138e-03  1.9033382639270049e-21 -3.7041000880418901e-20 -3.2141387082548841e-03  8.9362513157750522e-22 -3.7489041946731283e-20 -3.2426299952642208e-03  8.9214653581052250e-22 -3.6593774723442822e-20 -3.1523921767066835e-03  2.9165484189499386e-21 -3.6593289493177822e-20 -3.1885564617886615e-03  1.9005774102829151e-21 -3.6145337665456713e-20 -3.1257269380989263e-03  2.9137594010850351e-21 -3.5697539403093919e-20 -3.1011307606020749e-03  -1.1745072326294919e-22 -3.7938470059255522e-20 -3.2738250107762551e-03  -1.1551644681170427e-22 -3.7043440976922060e-20 -3.1808416065420230e-03  -1.1255704617112587e-21 -3.7496415855108032e-20 -3.2122113371778906e-03  2.8909608908694711e-21 -3.2104311605003541e-20 -2.7791901668080634e-03  2.8807127895815757e-21 -3.1208859263307236e-20 -2.7022838100132056e-03  1.9778522053152878e-21 -3.1656109587462380e-20 -2.7309038334112990e-03  1.9697542705687722e-21 -3.0761569630331744e-20 -2.6553943802481534e-03  2.8705659489483219e-21 -3.0315674112465928e-20 -2.6263383009946591e-03  1.0652327546082901e-21 -3.1207128421419789e-20 -2.6847993141403698e-03  1.9607511642041825e-21 -2.9869179811797700e-20 -2.5808043242176457e-03  1.0553081039899644e-21 -3.0313561622709570e-20 -2.6107714733174694e-03  1.0444807923892529e-21 -2.9422330018070516e-20 -2.5379813553653005e-03  2.8621047167580055e-21 -2.9426969916630491e-20 -2.5513073107835331e-03  1.9520953099158383e-21 -2.8981960601657589e-20 -2.5073986905549211e-03  2.8625123314700686e-21 -2.8541586980596561e-20 -2.4777784825317996e-03  1.5090717678038865e-22 -3.0754754129595479e-20 -2.6413337646859773e-03  1.3807802372325702e-22 -2.9863794793252311e-20 -2.5690790354357422e-03  -7.6677443791741692e-22 -3.0298452267566531e-20 -2.6006333453813539e-03  2.9237037746778456e-21 -1.6917170742071420e-20 -1.7509782149702847e-03  2.8247909680100724e-21 -1.5994578154919376e-20 -1.6945884772768367e-03  1.9462224759577751e-21 -1.6448066993671263e-20 -1.7205671283262668e-03  1.8730354800371322e-21 -1.5544808606027754e-20 -1.6644143949902214e-03  2.7245320048838180e-21 -1.5108742874387923e-20 -1.6386324112977336e-03  9.9961881750704726e-22 -1.5980255306887132e-20 -1.6907686248801058e-03  1.8013515392358574e-21 -1.4676809600331678e-20 -1.6088175183433121e-03  9.4275612171527786e-22 -1.5099065661517085e-20 -1.6349371407231457e-03  8.9036179601335916e-22 -1.4249819253149256e-20 -1.5796635365874685e-03  2.6314165924073134e-21 -1.4255128112195798e-20 -1.5832640803960581e-03  1.7354596989451374e-21 -1.3837408732869535e-20 -1.5537420606220420e-03  2.5506021980094843e-21 -1.3426858933713382e-20 -1.5285965138916217e-03  6.7749141885152760e-23 -1.5513622312045238e-20 -1.6617023519414260e-03  2.6496890684548944e-23 -1.4659697080684936e-20 -1.6063693252711662e-03  -8.5142913604183213e-22 -1.5061047913569738e-20 -1.6338361373047527e-03  2.4093900505642646e-21 -1.0182338841400269e-20 -1.3185319378459872e-03  2.4078222519001724e-21 -9.3416325673364383e-21 -1.2671417094867981e-03  1.5715142740774452e-21 -9.7597126481647181e-21 -1.2906215816186890e-03  1.5857214691321898e-21 -8.9318402769293727e-21 -1.2397599499502270e-03  2.4037035442627579e-21 -8.5263278919287852e-21 -1.2163609540971805e-03  7.6658655011223154e-22 -9.3507791891438827e-21 -1.2645260685742803e-03  1.5857978393829631e-21 -8.1160997612287322e-21 -1.1901157313798838e-03  7.7649100322402987e-22 -8.5315163317959380e-21 -1.2150041378035761e-03  7.7529472075274885e-22 -7.7135014730020114e-21 -1.1667830162938751e-03  2.3244730790789718e-21 -7.7196311954738562e-21 -1.1672490709228047e-03  1.4916703563115028e-21 -7.3164331838489525e-21 -1.1424062638325950e-03  2.2246799657730504e-21 -6.9147128761858526e-21 -1.1195402710944033e-03  6.1931111762380755e-23 -8.9881128726262191e-21 -1.2410652315410396e-03  -1.1019600981255347e-22 -8.1375960050759115e-21 -1.1922947135592841e-03  -9.2530255249622702e-22 -8.5388011009628905e-21 -1.2184987096196191e-03  2.9018045477744039e-21 -2.4821639874507678e-20 -2.2147552043426033e-03  2.9652448908229045e-21 -2.3898453646156506e-20 -2.1551044621270130e-03  1.9741421109604222e-21 -2.4376973403345317e-20 -2.1816535900062517e-03  2.0204199816285680e-21 -2.3422798383518386e-20 -2.1226146923542361e-03  3.0333290292982987e-21 -2.2926695471987378e-20 -2.0960755115187499e-03  1.0118355651618218e-21 -2.3930011513191320e-20 -2.1498052799019695e-03  2.0655298699142759e-21 -2.2431044551681069e-20 -2.0641929072712207e-03  1.0645604074625487e-21 -2.2948097239463942e-20 -2.0911228577920695e-03  1.1113690933200837e-21 -2.1935767218256802e-20 -2.0331302748749069e-03  3.0869787845236244e-21 -2.1923002138173450e-20 -2.0378151543499362e-03  2.0988811523844733e-21 -2.1415611045456889e-20 -2.0064076579301812e-03  3.1151382463002117e-21 -2.0902609633915598e-20 -1.9800308475660584e-03  4.8657029783285090e-23 -2.3491993655492904e-20 -2.1189948699004576e-03  1.2117086554120955e-22 -2.2476388937562686e-20 -2.0605271323322341e-03  -9.0288185718701550e-22 -2.3041572190570967e-20 -2.0890773429654585e-03  -9.4302908444263337e-22 -7.7116996895078790e-21 -1.1700608008807325e-03  -1.3871144033009006e-22 -7.2799003878552096e-21 -1.1446324076587139e-03  -9.4387972804518146e-22 -6.8876922431728795e-21 -1.1224784676040485e-03  6.0315247140426128e-22 -6.8920899892804253e-21 -1.1195961905012552e-03  -1.7950623109570136e-22 -6.5027015229242079e-21 -1.0975737869585124e-03  1.3783662243595155e-21 -6.5096253655842711e-21 -1.0956018986639665e-03  -4.4299910063156665e-21 -3.2008758772257517e-20 -2.7249230798139026e-03  -4.2975542148995925e-21 -3.3005088434105240e-20 -2.7955478777505738e-03  -3.2902219505670354e-21 -3.2543485252902521e-20 -2.7641334942418733e-03  -3.2981811729347547e-21 -3.3460823887095718e-20 -2.8350066523565088e-03  -4.2574843823217897e-21 -3.3915794622593343e-20 -2.8670779661668176e-03  -2.3506456421983032e-21 -3.2997273844756720e-20 -2.8055699771352190e-03  -3.2902390357512021e-21 -3.4354460705516861e-20 -2.9077100945258463e-03  -2.3475335934605603e-21 -3.3901487267239291e-20 -2.8774825688844415e-03  -2.3563426926160449e-21 -3.4806193936663835e-20 -2.9516314605352164e-03  -4.2363412926435848e-21 -3.4810418028465299e-20 -2.9422229271337053e-03  -3.2932714359918570e-21 -3.5262126942393991e-20 -2.9836541039313037e-03  -4.2313129096541872e-21 -3.5714138952467535e-20 -3.0201560879110985e-03  -1.4409368009902638e-21 -3.3446860011327947e-20 -2.8483277057257156e-03  -1.4291961238251672e-21 -3.4352195890948999e-20 -2.9216869495462582e-03  -5.2209031702393089e-22 -3.3899214902091219e-20 -2.8932306706579104e-03  -4.3405993750243115e-21 -2.4785988998830413e-20 -2.2089028597977924e-03  -4.3379730578708140e-21 -2.5806447393691330e-20 -2.2693609731426023e-03  -3.3506036430335061e-21 -2.5293552956970041e-20 -2.2385509434499694e-03  -3.5401130257925790e-21 -2.6192837743176688e-20 -2.3004846364787857e-03  -4.3450568590501556e-21 -2.6546080891951373e-20 -2.3305830220769898e-03  -2.5097481049403913e-21 -2.5719101505312627e-20 -2.2693132807848444e-03  -3.2948075819360690e-21 -2.7095792047232682e-20 -2.3631456321510352e-03  -2.5040162674941020e-21 -2.6688527655282117e-20 -2.3319582740618399e-03  -2.4612951265521724e-21 -2.7623776835251872e-20 -2.3954636079332537e-03  -4.3548030638663279e-21 -2.7622035026405548e-20 -2.3932639121683054e-03  -3.2968746444081948e-21 -2.8147358488345515e-20 -2.4265648456311571e-03  -4.3634671664458386e-21 -2.8672551804352519e-20 -2.4570878410296254e-03  -1.6449496140275412e-21 -2.6213711507904540e-20 -2.2997859484642346e-03  -1.6237637420957020e-21 -2.7156726426316303e-20 -2.3629172227642623e-03  -7.6880991097556642e-22 -2.6691973565810767e-20 -2.3304226895999743e-03  -3.9857128162582535e-21 -1.6482307855468936e-20 -1.7519999789941665e-03  -4.4145688204416225e-21 -1.7357465671031436e-20 -1.8071255478928621e-03  -3.3259389074138427e-21 -1.6823643112452015e-20 -1.7773034787004396e-03  -3.3229841573833599e-21 -1.7887195463763455e-20 -1.8330132792988790e-03  -4.5255628051497019e-21 -1.8524330417318903e-20 -1.8628354074845023e-03  -2.2964740140606722e-21 -1.7355310570320762e-20 -1.8030846300315750e-03  -3.3339692739850183e-21 -1.9157913209099068e-20 -1.8896803342286690e-03  -2.1613900804639396e-21 -1.8629673203076712e-20 -1.8597574118032799e-03  -1.8291812233746759e-21 -1.9914776193710154e-20 -1.9169516946343089e-03  -4.6797728832374569e-21 -1.9973892898600501e-20 -1.9194084772173076e-03  -3.3623634735009787e-21 -2.0662304504006491e-20 -1.9466223837300007e-03  -4.6837475901913962e-21 -2.1322209571502029e-20 -1.9765873264206407e-03  -1.4249515377993594e-21 -1.8171060026365119e-20 -1.8303116028783937e-03  -1.3456173257733603e-21 -1.9342096200514279e-20 -1.8875410019002512e-03  -5.8539967967883192e-22 -1.8812286872623020e-20 -1.8588660053677382e-03  -4.0526869777122740e-21 -1.0197754864326143e-20 -1.3279991894834455e-03  -4.1253646744194481e-21 -1.0987199045661232e-20 -1.3791594826399617e-03  -3.3282815209149970e-21 -1.0593081078796771e-20 -1.3508623841729942e-03  -3.3277111681318822e-21 -1.1390796790772869e-20 -1.4022096357090698e-03  -4.1178555013645690e-21 -1.1781622701316772e-20 -1.4308530786055213e-03  -2.5460036015957107e-21 -1.0992685939710999e-20 -1.3738353806594240e-03  -3.3434949545545110e-21 -1.2174754813228587e-20 -1.4540549153228540e-03  -2.5497732647310152e-21 -1.1781489682118257e-20 -1.4253125099505596e-03  -2.5470261076132577e-21 -1.2581470046000273e-20 -1.4774329610751792e-03  -4.1477785764254030e-21 -1.2582808578174941e-20 -1.4830109431851785e-03  -3.3566926953915161e-21 -1.2992286965072619e-20 -1.5063825701906875e-03  -4.1634075593401065e-21 -1.3394896177036348e-20 -1.5356377681151137e-03  -1.7440634749830121e-21 -1.1394615989735629e-20 -1.3967189233276033e-03  -1.7346163440163974e-21 -1.2185473726031101e-20 -1.4484999598938025e-03  -9.1849553535178329e-22 -1.1793860320208931e-20 -1.4199034864698719e-03  -8.6119525567265545e-22 -1.4233257561508288e-20 -1.5790029077387086e-03  -1.3717001228678085e-25 -1.3828224966069475e-20 -1.5516765171333536e-03  -8.7815085058730986e-22 -1.3411050317794480e-20 -1.5252269901399917e-03  8.5203449033976117e-22 -1.3422855072100739e-20 -1.5251197873547941e-03  -2.6549014734135589e-23 -1.3009586123804083e-20 -1.4978482910243114e-03  8.1691427087838909e-22 -1.2611985964730460e-20 -1.4712550217440661e-03  1.6870322314111656e-21 -1.3018837337683800e-20 -1.4993499344856036e-03  -8.9817226386010444e-22 -1.2593524013014457e-20 -1.4723379679327008e-03  -5.4806906887085002e-23 -1.2203515190308884e-20 -1.4446217910940302e-03  -7.7066782414478270e-22 -2.2026265459249689e-20 -2.0308678758656994e-03  1.9911171733906458e-22 -2.1445464850965176e-20 -2.0028932728481563e-03  -6.5612449871261793e-22 -2.0954798224442297e-20 -1.9734471074931465e-03  1.1539558376120936e-21 -2.0908873059410568e-20 -1.9756462451677274e-03  2.5207385409345462e-22 -2.0400943945120012e-20 -1.9455262768422095e-03  1.1750259529265846e-21 -1.9878565885706214e-20 -1.9183165724050248e-03  2.1217984022905211e-21 -2.0390891648571739e-20 -1.9489252967841784e-03  -5.9425174325051813e-22 -1.9881836500044373e-20 -1.9161512187831403e-03  2.7293293574579627e-22 -1.9358513341026384e-20 -1.8882661217900442e-03  -7.6310842496068692e-22 -2.9419023344467112e-20 -2.5304712356155877e-03  1.3638856057800562e-22 -2.8972599737779729e-20 -2.4983466814704745e-03  -7.5841375770241113e-22 -2.8526735163348877e-20 -2.4617088698384807e-03  1.0411058481963845e-21 -2.8529941746622208e-20 -2.4666560736578249e-03  1.3343254036135854e-22 -2.8074363663555035e-20 -2.4291876909378527e-03  1.0166496054039274e-21 -2.7631021797382295e-20 -2.3974595376800496e-03  1.9568090849870556e-21 -2.8094733609167939e-20 -2.4361103428035815e-03  -7.5905436082953375e-22 -2.7616795733188622e-20 -2.3949058167536492e-03  1.1531880724387876e-22 -2.7162525020962869e-20 -2.3624836515888435e-03  -9.6845160464448423e-22 -3.6601086794656667e-20 -3.1252475815185016e-03  3.7667913866965205e-23 -3.6146877288002637e-20 -3.0964807132280174e-03  -8.1003082739118041e-22 -3.5703785661625566e-20 -3.0438323584000698e-03  1.0410997860343486e-21 -3.5697835841746533e-20 -3.0697561097922550e-03  1.8779274047979782e-22 -3.5253303906103412e-20 -3.0171199431514618e-03  1.1877109757791076e-21 -3.4800516999697469e-20 -2.9911463775175230e-03  2.0499824644887969e-21 -3.5249088699248847e-20 -3.0442730642344248e-03  -6.6276802522122050e-22 -3.4804816617641276e-20 -2.9672230380178295e-03  3.3252064684299609e-22 -3.4350658919926084e-20 -2.9406884396323998e-03  2.0326976099335430e-21 -3.2552789080212111e-20 -2.8076833430339117e-03  1.1209482939521108e-21 -3.2104007316052785e-20 -2.7600952394645027e-03  1.1724256634070798e-21 -3.3001898977051182e-20 -2.8362185960467035e-03  2.1014807047647980e-22 -3.1649822373586852e-20 -2.7149515867608554e-03  2.6994182062767410e-22 -3.2549036492988447e-20 -2.7895240691210863e-03  -6.3645005219685958e-22 -3.2089013917306820e-20 -2.7452774677453147e-03  -7.0265358545358507e-22 -3.1185998506456355e-20 -2.6723547446846521e-03  3.2557220532758619e-22 -3.3450510487131180e-20 -2.8647786376332215e-03  -5.7598376976271597e-22 -3.2996503574206705e-20 -2.8188689744571881e-03  1.9491402325750331e-21 -2.5295099640561882e-20 -2.2415440160029705e-03  9.6097344709054460e-22 -2.4874732291458050e-20 -2.2092450404699797e-03  9.6886162903859667e-22 -2.5762062260251601e-20 -2.2697738310129703e-03  5.8700828099209789e-23 -2.4423514393106859e-20 -2.1782538486177453e-03  7.0597225001252413e-23 -2.5320644173612531e-20 -2.2382407196845718e-03  -8.3940723244621886e-22 -2.4848437492096662e-20 -2.2075520602278841e-03  -8.8930484878462273e-22 -2.3961725845328216e-20 -2.1479714610356747e-03  9.4115870563471287e-23 -2.6236835395157650e-20 -2.2991525372358357e-03  -7.9999470058917683e-22 -2.5763947487973373e-20 -2.2683768121657551e-03  2.0227196427717754e-21 -1.7389440376725162e-20 -1.7772745745124685e-03  1.0662260835352412e-21 -1.6901018665681114e-20 -1.7470827915476654e-03  1.1266561833777415e-21 -1.7862783272046699e-20 -1.8039350345462556e-03  1.2720937320219233e-22 -1.6405271415809414e-20 -1.7176180362259419e-03  1.9264310934200108e-22 -1.7345487896763519e-20 -1.7741484189214205e-03  -7.4373050923938738e-22 -1.6806391040995616e-20 -1.7451546836393631e-03  -8.1167107347165233e-22 -1.5907836989431390e-20 -1.6892215547439637e-03  2.5056709340927356e-22 -1.8334667618567125e-20 -1.8310727906081200e-03  -6.5627446030304907e-22 -1.7772555576595706e-20 -1.8018222531358075e-03  1.5833125844844246e-21 -1.0595489372843490e-20 -1.3418204665203418e-03  7.3870828638115607e-22 -1.0159107787721649e-20 -1.3148604245485085e-03  7.3792797034210307e-22 -1.1039943540094322e-20 -1.3657710212480892e-03  -6.2970901349652503e-23 -9.7863920249823444e-21 -1.2906069804913540e-03  -1.4548683771297678e-22 -1.0601669962458933e-20 -1.3407653840782757e-03  -9.5900283654075929e-22 -1.0210320315471512e-20 -1.3178287729409420e-03  -9.3308000642291971e-22 -9.4158253701012678e-21 -1.2677790913127416e-03  -9.4769543694910485e-23 -1.1409213186834424e-20 -1.3921203568589896e-03  -9.5685903787598335e-22 -1.0991721579488642e-20 -1.3683668656029025e-03  -1.6532974563498943e-21 -3.0710832173109309e-20 -2.6317712909598068e-03  -1.5752994672686283e-21 -3.1610764360544959e-20 -2.7029509060481757e-03  -2.5800303146745820e-21 -3.1082143143725748e-20 -2.6626980091025948e-03  -2.4363050829129847e-21 -3.2034443320504902e-20 -2.7336666632906000e-03  -1.4997043630372954e-21 -3.2532245331590697e-20 -2.7754594584819435e-03  -3.3481593131401988e-21 -3.1443352954295541e-20 -2.6936369181791045e-03  -3.4500134393027380e-21 -3.6165253686016860e-20 -3.0623460416545896e-03  -2.5133808076195119e-21 -3.5712789432955764e-20 -3.0267541798056313e-03  -2.6701035556564262e-21 -3.6618007285656310e-20 -3.1074542027150777e-03  -1.7336148586100736e-21 -3.6161414766339696e-20 -3.0737979837515638e-03  -1.5647207135911830e-21 -3.5259589189184476e-20 -2.9958334208951371e-03  -1.8956960798619364e-21 -3.7055636036713833e-20 -3.1575948324147778e-03  -3.3244545629610313e-21 -2.9194053730576654e-20 -2.4910734545252962e-03  -2.4675591939919413e-21 -2.8593311251948912e-20 -2.4599818087251710e-03  -2.5138982110972237e-21 -2.9476811109276776e-20 -2.5260304711336992e-03  -1.6320889211174585e-21 -2.8994044224818394e-20 -2.4943248330857237e-03  -1.6166319132498774e-21 -2.8086611794914401e-20 -2.4277404095394252e-03  -1.6528248511328574e-21 -2.9864662697258133e-20 -2.5623235464839159e-03  -1.7960351001619264e-21 -2.3513357520206755e-20 -2.1184398236836210e-03  -1.7745737896734043e-21 -2.4328960029983931e-20 -2.1774505770330056e-03  -2.5973221718265613e-21 -2.3896709359900303e-20 -2.1482629479819453e-03  -2.4589137968052490e-21 -2.4788163755051506e-20 -2.2078719228628934e-03  -1.6873462997819372e-21 -2.5269430380432653e-20 -2.2379570712896648e-03  -3.3521916754090077e-21 -2.4282492654675223e-20 -2.1785140711071405e-03  -3.3723464650017954e-21 -2.1976364508829571e-20 -2.0039518850764409e-03  -2.2799891831762476e-21 -2.1179844077262766e-20 -1.9742969612781044e-03  -2.6031944680563054e-21 -2.2360341670662467e-20 -2.0318405457652681e-03  -1.5764218153786764e-21 -2.1595683958349181e-20 -2.0022493323952157e-03  -1.3976177933395265e-21 -2.0440659942413474e-20 -1.9448630903313136e-03  -1.7873390312014924e-21 -2.2679469296763444e-20 -2.0599673446346535e-03  -1.7266157802078810e-21 -1.5445588689759665e-20 -1.6622453856276504e-03  -1.7029011869107725e-21 -1.6261462364419197e-20 -1.7174015664756918e-03  -2.6972086240094139e-21 -1.5821494101339346e-20 -1.6916544725314626e-03  -2.6637091498406956e-21 -1.6492608246433090e-20 -1.7468442696460303e-03  -1.5823052540194476e-21 -1.7155596297479434e-20 -1.7735310587044925e-03  -3.3582099521187888e-21 -1.6150926085428480e-20 -1.7218511140851382e-03  -3.3744014673200031e-21 -1.3806785938094771e-20 -1.5594008403616720e-03  -2.5523798297204100e-21 -1.3392698757051055e-20 -1.5299809892839200e-03  -2.5304067558912033e-21 -1.4233604703608345e-20 -1.5831862428782372e-03  -1.7085124781955292e-21 -1.3812893324354073e-20 -1.5536492777626922e-03  -1.7450603500990516e-21 -1.2987025932438511e-20 -1.5008833871238579e-03  -1.7112710113353859e-21 -1.4645406714853823e-20 -1.6076072721418714e-03  -1.7563672110872259e-21 -8.9674670851222019e-21 -1.2454494282165764e-03  -1.7477125986161743e-21 -9.8147933567758035e-21 -1.2952075117011938e-03  -2.5720670434971698e-21 -9.3961973805943558e-21 -1.2725648499535894e-03  -2.5533358569104886e-21 -1.0208433999949286e-20 -1.3228803034923112e-03  -1.7473111143685751e-21 -1.0601896022456859e-20 -1.3456536410166922e-03  -3.3397620958251110e-21 -9.8167327443073802e-21 -1.3001003590224706e-03  2.2625540054785458e-21 -3.9582177718501663e-20 -3.5004994389648066e-03  1.2509247858415187e-21 -3.9136211566313572e-20 -3.4301925525908840e-03  1.6079127650144554e-21 -3.9888129637733438e-20 -3.5246380968854598e-03  2.3885183553806953e-22 -3.8690598449087578e-20 -3.3629042095942182e-03  5.9607979400884497e-22 -3.9442347252750622e-20 -3.4554404406796722e-03  -4.1488067911042591e-22 -3.8997414145739287e-20 -3.3880925354580261e-03  -7.7173346787904332e-22 -3.8246933579641285e-20 -3.2982344041212037e-03  9.5325478976686891e-22 -4.0194048402119618e-20 -3.5502890384958830e-03  -5.7985824919279183e-23 -3.9748622055148632e-20 -3.4811904909830293e-03  2.9913362283548337e-22 -4.0499693086477117e-20 -3.5762159307669069e-03  2.4854346085981946e-21 -1.2616723474981104e-20 -1.4746673443409846e-03  1.6382952234294171e-21 -1.2215221292737623e-20 -1.4457297082834148e-03  2.4387103299729303e-21 -1.1816534865602904e-20 -1.4216773304527176e-03  1.600666552274407