<?xml version="1.0"?>
<VTKFile type="UnstructuredGrid"  version="0.1"  >
<UnstructuredGrid>
<Piece  NumberOfPoints="392" NumberOfCells="686">
<Points>
<DataArray  type="Float64"  NumberOfComponents="3"  format="ascii">3.999999999999964 0 0  4.249999999999965 0 0  4.124999999998478 0.2534792888374535 0  4.374999999998479 0.2534792888374535 0  4.499999999999966 0 0  4.249999999996992 0.506958577674907 0  4.624999999998479 0.2534792888374535 0  4.499999999996993 0.506958577674907 0  4.749999999996994 0.506958577674907 0  4.749999999999967 0 0  4.874999999998481 0.2534792888374535 0  4.999999999999968 0 0  4.374999999995506 0.7604378665123606 0  4.624999999995506 0.7604378665123606 0  4.499999999994019 1.013917155349814 0  5.99999999999997 0 0  6.249999999999971 0 0  6.124999999997403 0.2534792888376092 0  6.374999999997405 0.2534792888376092 0  6.499999999999972 0 0  6.249999999994837 0.5069585776752185 0  6.624999999997405 0.2534792888376092 0  6.499999999994838 0.5069585776752185 0  6.749999999994839 0.5069585776752185 0  6.749999999999972 0 0  6.874999999997407 0.2534792888376092 0  6.999999999999973 0 0  6.374999999992271 0.7604378665128277 0  6.624999999992271 0.7604378665128277 0  6.499999999989704 1.013917155350437 0  1.999999999999982 0 0  2.24999999999998 0 0  2.12499999999946 0.2613818370536612 0  2.374999999999459 0.2613818370536612 0  2.499999999999979 0 0  2.249999999998939 0.5227636741073225 0  2.624999999999457 0.2613818370536612 0  2.499999999998937 0.5227636741073225 0  2.749999999998935 0.5227636741073225 0  2.749999999999977 0 0  2.874999999999455 0.2613818370536612 0  2.999999999999975 0 0  2.374999999998417 0.7841455111609837 0  2.624999999998415 0.7841455111609837 0  2.499999999997895 1.045527348214645 0  1.999999999998379 2 0  1.74999999999856 2 0  1.874999999998781 1.716506350946107 0  1.624999999998962 1.716506350946107 0  1.499999999998741 2 0  1.749999999999184 1.433012701892215 0  1.374999999999143 1.716506350946107 0  1.499999999999365 1.433012701892215 0  1.249999999999545 1.433012701892215 0  1.249999999998922 2 0  1.124999999999324 1.716506350946107 0  0.9999999999991025 2 0  1.624999999999586 1.149519052838322 0  1.374999999999767 1.149519052838322 0  1.499999999999988 0.8660254037844294 0  7.999999999999975 0 0  8.249999999999975 0 0  8.124690294450405 0.261918262795331 0  8.374690294450405 0.261918262795331 0  8.499999999999975 0 0  8.249380588900834 0.523836525590662 0  8.624690294450405 0.261918262795331 0  8.499380588900834 0.523836525590662 0  8.749380588900834 0.523836525590662 0  8.749999999999975 0 0  8.874690294450406 0.261918262795331 0  8.999999999999977 0 0  8.374070883351264 0.785754788385993 0  8.624070883351264 0.785754788385993 0  8.498761177801693 1.047673051181324 0  9.998243232147571 1.493352101097468 0  9.747700510046972 1.487239507722953 0  9.872093487178645 1.236971854958944 0  9.873850255015896 1.743619753861476 0  9.996486464310319 0.986704202194936 0  9.74594374220972 0.9805916088204207 0  9.621550765078046 1.230859261584429 0  9.495401020109121 0.9744790154459053 0  9.999999999984821 2 0  9.749999999984439 2 0  9.623850255015515 1.743619753861476 0  9.499999999984059 2 0  9.373850255015135 1.743619753861476 0  9.497700510046592 1.487239507722953 0  9.24770051004621 1.487239507722953 0  9.249999999983679 2 0  9.123850255014755 1.743619753861476 0  8.999999999983299 2 0  9.371550765077664 1.230859261584429 0  3.999999999993654 2 0  3.749999999994383 2 0  3.874999999994342 1.744460791439874 0  3.624999999995071 1.744460791439874 0  3.499999999995112 2 0  3.74999999999503 1.488921582879748 0  3.3749999999958 1.744460791439874 0  3.499999999995759 1.488921582879748 0  3.249999999996488 1.488921582879748 0  3.249999999995841 2 0  3.124999999996529 1.744460791439874 0  2.99999999999657 2 0  3.624999999995718 1.233382374319621 0  3.374999999996447 1.233382374319621 0  3.499999999996406 0.9778431657594949 0  5.99999999998782 2 0  5.74999999998855 2 0  5.87499999998929 1.751159762945844 0  5.62499999999002 1.751159762945844 0  5.499999999989278 2 0  5.749999999990761 1.502319525891687 0  5.374999999990749 1.751159762945844 0  5.49999999999149 1.502319525891687 0  5.24999999999222 1.502319525891687 0  5.249999999990007 2 0  5.124999999991478 1.751159762945844 0  4.999999999990736 2 0  5.624999999992232 1.253479288837531 0  5.37499999999296 1.253479288837531 0  5.499999999993702 1.004639051783375 0  7.999999999982053 2 0  7.749999999982765 2 0  7.874963130275843 1.744524651647608 0  7.624963130276555 1.744524651647608 0  7.499999999983477 2 0  7.749926260569634 1.489049303295215 0  7.374963130277267 1.744524651647608 0  7.499926260570346 1.489049303295215 0  7.249926260571058 1.489049303295215 0  7.24999999998419 2 0  7.12496313027798 1.744524651647608 0  6.999999999984902 2 0  7.624889390863425 1.233573954942823 0  7.374889390864137 1.233573954942823 0  7.499852521157216 0.9780986065904302 0  6.749963130281582 1.004962518160435 0  6.874963130284149 0.751483229322826 0  6.99992626057346 0.9960078809704336 0  6.999963130286717 0.4980039404852168 0  7.124926260576027 0.7425285921328244 0  7.249926260578595 0.4890493032952151 0  7.124963130289284 0.2445246516476076 0  7.249889390865338 0.9870532437804319 0  7.374889390867905 0.7335739549428226 0  4.74999999999394 1.011597629458204 0  4.874999999995428 0.7581183406207508 0  4.999999999993861 1.009278103566595 0  4.999999999996914 0.5046390517832973 0  5.124999999995348 0.755798814729141 0  5.249999999996835 0.5023195258916875 0  5.124999999998401 0.2511597629458437 0  5.249999999993781 1.006958577674985 0  5.374999999995268 0.7534792888375312 0  2.749999999997523 1.028606302600858 0  2.874999999998043 0.7672244655471963 0  2.999999999997151 1.01168525698707 0  2.999999999998563 0.505842628493535 0  3.124999999997671 0.7503034199334088 0  3.249999999998191 0.4889215828797475 0  3.124999999999083 0.2444607914398737 0  3.249999999996779 0.9947642113732824 0  3.374999999997298 0.7333823743196212 0  3.874999999999075 0.2444607914398737 0  3.999999999997589 0.4979400802773273 0  3.749999999998185 0.4889215828797475 0  4.124999999996103 0.7514193691147808 0  3.874999999996699 0.742400871717201 0  3.999999999995213 0.9958801605546546 0  4.249999999994616 1.004898657952234 0  3.624999999997295 0.7333823743196212 0  3.74999999999581 0.9868616631570748 0  5.874999999998403 0.2511597629458437 0  5.999999999995836 0.5046390517834529 0  5.749999999996836 0.5023195258916875 0  6.124999999993269 0.7581183406210621 0  5.874999999994269 0.7557988147292967 0  5.999999999991703 1.009278103566906 0  6.249999999990703 1.011597629458671 0  5.62499999999527 0.7534792888375312 0  5.749999999992703 1.00695857767514 0  7.874963130289285 0.2445246516476076 0  7.999653424739715 0.5064429144429385 0  7.749926260578595 0.4890493032952151 0  8.124343719190144 0.7683611772382695 0  7.874616555029025 0.7509675660905462 0  7.999306849479455 1.012885828885877 0  8.249034013640575 1.0302794400336 0  7.624889390867906 0.7335739549428226 0  7.749579685318335 0.9954922177381537 0  1.874999999999984 0.2165063509461073 0  1.999999999999462 0.4778881879997686 0  1.749999999999985 0.4330127018922147 0  2.12499999999894 0.7392700250534299 0  1.874999999999463 0.694394538945876 0  1.999999999998942 0.9557763759995372 0  2.249999999998418 1.000651862107091 0  1.624999999999986 0.649519052838322 0  1.749999999999465 0.9109008898919833 0  2.374999999998016 1.284145511160984 0  2.124999999998539 1.23927002505343 0  2.249999999998137 1.522763674107322 0  1.99999999999866 1.477888187999769 0  1.874999999999063 1.194394538945876 0  2.124999999998258 1.761381837053661 0  8.747921138378551 1.029374542247469 0  8.87323084392812 0.7674562794521382 0  8.997081098955407 1.011076033313615 0  8.998540549477692 0.5055380166568073 0  9.122390804504978 0.7491577705182837 0  9.24770051005455 0.4872395077229527 0  9.123850255027264 0.2436197538614763 0  9.246241059532263 0.99277752437976 0  9.371550765081835 0.7308592615844289 0  2.874999999996901 1.761381837053661 0  2.99999999999686 1.505842628493535 0  2.749999999997232 1.522763674107322 0  2.874999999997192 1.267224465547196 0  3.124999999996819 1.250303419933409 0  2.624999999997564 1.284145511160984 0  4.374999999993928 1.260437866512361 0  4.124999999994524 1.251419369114781 0  4.249999999993836 1.506958577674907 0  3.999999999994433 1.497940080277327 0  3.874999999995121 1.242400871717201 0  4.124999999993745 1.753479288837454 0  4.874999999991557 1.753479288837454 0  4.999999999992299 1.504639051783297 0  4.749999999992378 1.506958577674907 0  4.874999999993119 1.258118340620751 0  5.12499999999304 1.255798814729141 0  4.624999999993198 1.260437866512361 0  6.374999999989234 1.260437866512828 0  6.124999999990233 1.258118340621062 0  6.249999999988763 1.506958577675218 0  5.999999999989762 1.504639051783453 0  5.874999999991232 1.255798814729297 0  6.124999999988292 1.753479288837609 0  6.874999999986102 1.753479288837609 0  6.99996313027918 1.498003940485217 0  6.749999999987303 1.506958577675218 0  6.874963130280381 1.251483229322826 0  7.124926260572259 1.242528592132824 0  6.624999999988503 1.260437866512828 0  8.374070883346782 1.285754788385993 0  8.124343719185664 1.268361177238269 0  8.249380588891873 1.523836525590662 0  7.999653424730753 1.506442914442939 0  7.874616555024544 1.250967566090546 0  8.124690294436963 1.761918262795331 0  8.874690294437897 1.761918262795331 0  8.998540549469354 1.505538016656807 0  8.749380588892496 1.523836525590662 0  8.873230843923952 1.267456279452138 0  9.122390804500808 1.249157770518284 0  8.624070883347095 1.285754788385993 0  1.289362916539685 0.9660984820476399 0  1.164362916539464 1.249592131101533 0  1.078725833079383 1.066171560310851 0  1.039362916539243 1.533085780155425 0  0.9537258330791614 1.349665209364743 0  0.82872583307894 1.633158858418636 0  0.9143629165390212 1.816579429209318 0  0.8680887496190801 1.166244638574061 0  0.7430887496188587 1.449738287627954 0  0.
[...]
<PointData  Vectors="u"> 
<DataArray  type="Float64"  Name="u"  NumberOfComponents="3" format="ascii">-1.8523126617564264e-22 -4.2244463373431649e-22 -2.4195047004242726e-04  -2.2327961979212516e-22 -4.4107937761331478e-22 -2.6815596206100135e-04  -1.8842202208059557e-22 -4.2637975112805235e-22 -2.5503013604861834e-04  -1.8249805856304283e-22 -4.7716824154669085e-22 -2.8167738912643142e-04  -2.1707182437364884e-22 -4.9908546179908363e-22 -2.9514769192878212e-04  -1.3396995298434105e-22 -4.5359366447873744e-22 -2.6837532458229518e-04  -1.7607760909714546e-22 -5.1626447403558640e-22 -3.0910389771717037e-04  -1.5972071754581746e-22 -4.9381036221497128e-22 -2.9547496974565422e-04  -1.5562500621806739e-22 -5.3514945349996631e-22 -3.2332127736165459e-04  -2.3039719564888106e-22 -5.4290067313340178e-22 -3.2288727869929910e-04  -1.9749052207408819e-22 -5.5916098423219330e-22 -3.3724614924817488e-04  -2.6043464419031803e-22 -5.8484619270085505e-22 -3.5131805701969359e-04  -1.0551682411875019e-22 -4.6514604162089448e-22 -2.8197837851500721e-04  -9.7461833167848707e-23 -5.1884331992631954e-22 -3.0952050447799115e-04  -6.3556454682442217e-23 -4.9397787062828266e-22 -2.9584776579517777e-04  -3.6316320671502695e-22 -8.6272563176733064e-22 -4.7293676050530676e-04  -3.9187994819571469e-22 -9.4549577278247729e-22 -5.0554664575347343e-04  -2.8084621239278366e-22 -9.0086777248832382e-22 -4.8993531214948046e-04  -2.9711751682115762e-22 -9.8646855272902819e-22 -5.2317132665283077e-04  -4.0031976419951490e-22 -1.0363783829166786e-21 -5.3915496811172243e-04  -2.0787173611287457e-22 -9.4406522916122826e-22 -5.0757750178681603e-04  -3.1890409225245844e-22 -1.0816040072402869e-21 -5.5742242628551840e-04  -2.1159111141957236e-22 -1.0302627935163554e-21 -5.4157345401257802e-04  -2.4579872515284694e-22 -1.1331231106331248e-21 -5.7661755623398820e-04  -4.1026918804566947e-22 -1.1298984249608958e-21 -5.7383187971800169e-04  -3.2793300356045239e-22 -1.1788681196300883e-21 -5.9274374207556903e-04  -4.2224063998402541e-22 -1.2199963953025739e-21 -6.0964171750737520e-04  -1.4924113414100087e-22 -9.8248108610375303e-22 -5.2586890996216505e-04  -1.6604587624967365e-22 -1.0756594887875536e-21 -5.6059184284103908e-04  -8.0842041307904420e-23 -1.0272778475595852e-21 -5.4423546748689166e-04  -1.2787687313307597e-22 -1.1357149244147636e-22 -7.0216510404623914e-05  -1.8255915492960099e-22 -1.3276757173094638e-22 -8.7162710886567037e-05  -1.3671040576863868e-22 -1.3258832550833483e-22 -7.8412341470438074e-05  -1.5125351252760855e-22 -1.5997553221142094e-22 -9.6123799483204263e-05  -1.8083441441612642e-22 -1.7672935991687275e-22 -1.0558546627440982e-04  -1.1663118178450675e-22 -1.3990966831180537e-22 -8.7051922401837139e-05  -1.4322672577670211e-22 -1.9437325171480651e-22 -1.1526378749704914e-04  -1.0181383471928963e-22 -1.7269315761272140e-22 -1.0550168955225888e-04  -1.3093892945441088e-22 -2.0775962470065304e-22 -1.2533290189603599e-04  -1.9284490213063790e-22 -2.1853827645352972e-22 -1.2538854237346506e-04  -1.7286880094412328e-22 -2.3113491370119807e-22 -1.3573790465393404e-04  -2.0019603371451610e-22 -2.4027511766693658e-22 -1.4647953695114856e-04  -9.8855098501185176e-23 -1.6070413875453635e-22 -9.6117736257745161e-05  -7.9755669642481480e-23 -1.8207047807576348e-22 -1.1528027090958709e-04  -5.5785905770504128e-23 -1.7199736653330126e-22 -1.0559489316234507e-04  8.0029376226463951e-23 -9.2722975241096289e-23 -7.0694979090578602e-05  5.5378996627658631e-23 -6.4402017241564311e-23 -5.5231679855974021e-05  2.4154136397020805e-23 -8.2620285061659133e-23 -6.2529239596554006e-05  1.3474734152676672e-23 -5.8683125784447909e-23 -4.7901710147518164e-05  5.2432769588328341e-23 -3.7788298781707995e-23 -4.1445536205079368e-05  -2.7136070649259136e-23 -7.4349333362879836e-23 -5.4841452471024887e-05  -1.3697624948194754e-23 -4.3506095198236871e-23 -3.5005926301209274e-05  1.1982856257239209e-23 -6.1515439551511187e-23 -4.1080325953423188e-05  3.6457249327555906e-23 -3.1302002379050832e-23 -2.9108820701765004e-05  1.3337501505653178e-23 -1.4949788266456784e-23 -2.9442185124680085e-05  1.9985076096529853e-23 -3.0735946436590854e-23 -2.3951403103333660e-05  1.2270544276390907e-23 -2.6090192618479031e-23 -1.9328576180503535e-05  8.5905498214484739e-24 -8.4664302639317758e-23 -4.7641531928247868e-05  -1.8050428558046767e-23 -4.5911988186874327e-23 -3.4777272716328228e-05  -3.8787504121317070e-23 -7.1775838299092354e-23 -4.0932954602637877e-05  -1.5625259716939781e-21 -2.0910736697551270e-21 -7.7018212891082993e-04  -1.9302483555478621e-21 -2.4889977889691709e-21 -8.1330524582550997e-04  -1.3457872858995952e-21 -2.2786876324178362e-21 -7.9107587876206574e-04  -1.6430502954906082e-21 -2.7107563437551098e-21 -8.3399704826672455e-04  -2.2807410552700243e-21 -2.9531557251959219e-21 -8.5694184469370794e-04  -1.1136378454081720e-21 -2.4835550248313148e-21 -8.1190637820738581e-04  -1.9188071210451931e-21 -3.2081436378639130e-21 -8.7747446777527776e-04  -1.3311412169712286e-21 -2.9480855384232476e-21 -8.5462631495280574e-04  -1.5340730834015726e-21 -3.4766426706493042e-21 -8.9804505039475303e-04  -2.6091097750524283e-21 -3.4827132278334193e-21 -9.0109744546808246e-04  -2.1743241039204599e-21 -3.7689447688711472e-21 -9.2154910292451203e-04  -2.9118551263327024e-21 -4.0733470575426071e-21 -9.4585222638016609e-04  -8.3203107109896700e-22 -2.6991923046004144e-21 -8.3251805039846673e-04  -9.8380024186871386e-22 -3.2007158100787723e-21 -8.7522466854555341e-04  -4.7009813335766536e-22 -2.9109364889913229e-21 -8.5306385601026445e-04  6.0315247140426128e-22 -6.8920899892804253e-21 -1.1195961905012552e-03  5.8560502892121994e-22 -6.1347503096980937e-21 -1.0731021057483576e-03  -1.7950623109570136e-22 -6.5027015229242079e-21 -1.0975737869585124e-03  1.3783662243595155e-21 -6.5096253655842711e-21 -1.0956018986639665e-03  -9.4387972804518146e-22 -6.8876922431728795e-21 -1.1224784676040485e-03  -9.4263031713359058e-22 -6.1224083165639816e-21 -1.0755371030894212e-03  -1.9293589410279681e-22 -5.7497646149106644e-21 -1.0510870934709268e-03  -9.3545430116819411e-22 -5.3834166420406379e-21 -1.0291887834568791e-03  2.2246799657730504e-21 -6.9147128761858526e-21 -1.1195402710944033e-03  2.1026778486026036e-21 -6.1332118046099727e-21 -1.0728433377098698e-03  1.2981426708172876e-21 -5.7594811320609959e-21 -1.0496376303337242e-03  1.9716262415150301e-21 -5.4033018099772610e-21 -1.0269043776270537e-03  1.2097010559307581e-21 -5.0514925476540127e-21 -1.0041528442306107e-03  5.5215675921127127e-22 -5.3934454782797717e-21 -1.0273155298276412e-03  5.0833598676112935e-22 -4.7069063215224838e-21 -9.8222845828578771e-04  1.8319877205429624e-21 -4.7213675329073472e-21 -9.8176377154555040e-04  1.1132007936382919e-21 -4.3981471624248062e-21 -9.5953235680950200e-04  1.6870508432243802e-21 -4.0774317450706123e-21 -9.3777103820541529e-04  -1.7562235426861320e-22 -5.0404311187908727e-21 -1.0054402268079555e-03  1.1622181328565672e-22 -4.1954900415046119e-22 -2.4319383592269909e-04  9.8019886885191071e-23 -3.6462884567951154e-22 -2.1765789910977351e-04  4.3869052001858770e-23 -3.8284261005600520e-22 -2.3002421027378198e-04  2.7077324036667556e-23 -3.3812084537593245e-22 -2.0499500962613238e-04  8.4238466818810081e-23 -3.2099996171907234e-22 -1.9311224292676738e-04  -1.9674029145073388e-23 -3.6346455436858551e-22 -2.1715544030418275e-04  4.9059350285991644e-23 -3.0777440677461157e-22 -1.8098129815808948e-04  -1.1600248812377438e-25 -3.2480518895764859e-22 -1.9264116160352168e-04  2.3004241975304723e-23 -2.9520955742385486e-22 -1.6917216562031557e-04  9.6072431726835878e-23 -2.9690562355811888e-22 -1.6962142350026676e-04  6.2801918895801181e-23 -2.7771065480094359e-22 -1.5805344204684321e-04  1.2515484453414765e-22 -2.5868957383662383e-22 -1.4725772541165856e-04  -2.6757719494707883e-23 -3.4471858490635323e-22 -2.0459353225502137e-04  -3.4839848482304380e-24 -3.0874036030015014e-22 -1.8060442363223217e-04  -5.2686133098410429e-23 -3.2393979080633244e-22 -1.9233972972929929e-04  2.8550404975825547e-22 -8.5615197191830866e-22 -4.7913960116077042e-04  2.9334560685327619e-22 -7.7399644134056534e-22 -4.4664792156338473e-04  1.9715408353505626e-22 -8.1225711219365493e-22 -4.6216080318635296e-04  1.9302608196572267e-22 -7.2890680673630305e-22 -4.3012736058768437e-04  2.3807665935818086e-22 -7.0865117025465641e-22 -4.1501693555618633e-04  1.0700810616419901e-22 -7.7103581541199945e-22 -4.4542186996145345e-04  1.5774838542118157e-22 -6.6757865816920758e-22 -3.9897268464956891e-04  8.6811781018509539e-23 -7.0176962831487404e-22 -4.1387379512998571e-04  9.1029510054358923e-23 -6.3582466240654317e-22 -3.8321502958072210e-04  2.2323502596015754e-22 -6.3889218739605410e-22 -3.8424586338176633e-04  1.2512138484358915e-22 -6.0707790498471467e-22 -3.6868426119155984e-04  1.5337474800748759e-22 -5.7561411561555687e-22 -3.5432702959514685e-04  3.0835762138996966e-23 -7.4234497688865419e-22 -4.2893010637709718e-04  2.0653302851871158e-23 -6.7230551292408962e-22 -3.9790119762448051e-04  -5.1032903094634944e-23 -7.0594383082170469e-22 -4.1272083803850328e-04  9.0286351577947401e-22 -2.1329415497627244e-21 -7.6997838747145026e-04  6.8902554268637087e-22 -1.8012472950592727e-21 -7.3028364261509186e-04  4.7177307562824010e-22 -1.9678084834113928e-21 -7.4966295229379938e-04  3.6398625990092564e-22 -1.6854247921802797e-21 -7.1024510803692107e-04  4.4116618749706754e-22 -1.5140108467152135e-21 -6.9127179788571619e-04  1.6609733168538240e-22 -1.8150823608562721e-21 -7.2976202418705905e-04  3.0843283738791726e-22 -1.4526208902367937e-21 -6.7194429576687286e-04  1.5507194131983527e-22 -1.5788861500590869e-21 -6.9078703196004745e-04  1.4644304702796944e-22 -1.3818134704663293e-21 -6.5300022581951439e-04  3.9111843758993584e-22 -1.3735003566955745e-21 -6.5367443196610669e-04  2.6186010925441738e-22 -1.3124418934563916e-21 -6.3493090155846929e-04  3.7617512439257791e-22 -1.2533488899042373e-21 -6.1723553150243575e-04  -1.0318986650332082e-22 -1.6848749817756286e-21 -7.1014663907746720e-04  -4.7524477958313092e-23 -1.4637237189748545e-21 -6.7155451331875424e-04  -2.8124230706059287e-22 -1.5708549475039606e-21 -6.9071601388706019e-04  -1.0489221989160258e-22 -1.1281793630231498e-21 -5.7933272193723016e-04  -1.9720791134069686e-22 -1.1882381478487291e-21 -5.9621913886099881e-04  -1.3186024197840710e-22 -1.2434110213046598e-21 -6.1533845399879938e-04  -2.6737855833758758e-22 -1.2250298584665386e-21 -6.1261085014566825e-04  -2.2476889396193048e-22 -1.2889988532994965e-21 -6.3283271261417671e-04  -2.9325770633652675e-22 -1.3186848875712887e-21 -6.4970993253545190e-04  -3.4816922819944939e-22 -1.2652827637473340e-21 -6.2914883265310635e-04  -1.7851398293925355e-22 -1.3912377072898269e-21 -6.5247362297038674e-04  -2.6263177073771242e-22 -1.4107703820435524e-21 -6.7054750658229398e-04  -4.8659376174718948e-23 -5.3946037565833306e-22 -3.2383812790299951e-04  -8.5304463892541238e-23 -5.6536664564589519e-22 -3.3780637733131860e-04  -2.6616150653232995e-23 -5.8828268419435756e-22 -3.5261500749418786e-04  -1.4700824313132011e-22 -5.8885838735090868e-22 -3.5188996749008336e-04  -9.2624291601503791e-23 -6.2004017453394799e-22 -3.6686362211013222e-04  -1.5660983240579395e-22 -6.4839796648338442e-22 -3.8125629528296752e-04  -2.1231708717864976e-22 -6.1720837694038042e-22 -3.6610889470288461e-04  -2.2259285965004453e-23 -6.4679778825867033e-22 -3.8222365471031879e-04  -9.6321409252386547e-23 -6.7221708823983006e-22 -3.9681585291055014e-04  -3.1612129096678023e-23 -2.0914604095654527e-22 -1.2543842202676018e-04  -8.0926889745162153e-23 -2.2144420282511367e-22 -1.3577291287733461e-04  -3.3016190027675947e-23 -2.5214414857220228e-22 -1.4656789668831313e-04  -1.3468412149753501e-22 -2.3813386813197212e-22 -1.4645069030225905e-04  -8.5377954866293593e-23 -2.7088610579798864e-22 -1.5750746594996208e-04  -1.3951668883622854e-22 -2.7697070160239228e-22 -1.6876644964783881e-04  -1.5824469069594990e-22 -2.6491977345265349e-22 -1.5745538323404145e-04  -5.6236507972583736e-23 -2.8597132453460585e-22 -1.6889607292584806e-04  -9.7184287559674848e-23 -3.0189587413824642e-22 -1.8039805961674792e-04  -1.6354837719646673e-22 -3.9410416969775895e-22 -2.2919696040750868e-04  -1.6047018476622268e-22 -4.0820121853465774e-22 -2.4207931312783318e-04  -1.4957789137443263e-22 -3.8229295528329458e-22 -2.1666092946847544e-04  -1.2830939609343024e-22 -4.2467278047805662e-22 -2.5522813822983521e-04  -1.4038361993142402e-22 -3.8225182425480813e-22 -2.2933571518026088e-04  -7.6761063923750970e-23 -4.0084569883278515e-22 -2.4229010066723099e-04  -6.9362801918739050e-23 -4.4671612034127293e-22 -2.6864729078439895e-04  -9.9362238621201713e-23 -3.4289892066221736e-22 -2.0436716647723689e-04  -7.5515750444143546e-23 -3.6150015908356596e-22 -2.1683229530229268e-04  -2.5387050015085487e-22 -8.1703089266000957e-22 -4.5765656300416599e-04  -1.8893497473080277e-22 -8.5949058116971833e-22 -4.7460322108970984e-04  -1.8163055428068614e-22 -7.8191725397185293e-22 -4.4260112831987641e-04  -1.2849296740344135e-22 -8.9828745238639999e-22 -4.9213513061673281e-04  -1.1768734579214493e-22 -8.1859388714283176e-22 -4.5940546539937537e-04  -4.0049297197461686e-23 -8.5720195100001492e-22 -4.7656436163157930e-04  -6.1702232387118964e-23 -9.3411823766825515e-22 -5.0994060336784382e-04  -1.1546802008726011e-22 -7.4509299991883103e-22 -4.2765142421086102e-04  -3.4209794607618369e-23 -7.8606983485350480e-22 -4.4415068585241575e-04  -1.0408637491371403e-21 -1.9092009955679739e-21 -7.4873119977898533e-04  -9.0592035623115543e-22 -2.0883560068392411e-21 -7.6994718918699571e-04  -6.7558038264620481e-22 -1.7575327973135971e-21 -7.2870759785068453e-04  -7.1020550984423889e-22 -2.2854355081599898e-21 -7.9074930568758266e-04  -5.7965385726884366e-22 -1.9352575398189546e-21 -7.4982797201294420e-04  -4.0253727512233283e-22 -2.1312587865828786e-21 -7.7014561142845688e-04  -4.4193376928781604e-22 -2.4886264667132286e-21 -8.1116551181121925e-04  -4.3536528903283086e-22 -1.6525535272618252e-21 -7.0968354609846041e-04  -3.5474513960200398e-22 -1.8204392998712699e-21 -7.2996649807122041e-04  -1.0612987070128010e-22 -9.4446305984821512e-23 -6.2238978401818964e-05  -8.5408000895309159e-23 -1.0884113689189457e-22 -7.0082257520701890e-05  -6.0479218244132585e-23 -8.6819464947392682e-23 -5.4691659962028971e-05  -7.7653983643779471e-23 -1.1946693236747193e-22 -7.8378361362560237e-05  -4.0499765899062544e-23 -9.0546037563805840e-23 -6.2167449781198197e-05  -1.9969797040089946e-23 -9.3231227105847174e-23 -7.0106934449534565e-05  -4.0626040693625595e-23 -1.3912725986958636e-22 -8.7111525063080620e-05  -5.7368697488057300e-24 -5.3880118041034013e-23 -4.7587590117371273e-05  -2.8825643726107206e-24 -8.4464135235596843e-23 -5.4680645176791893e-05  -2.6969142397158334e-23 -1.5413485256817425e-22 -9.6279316335364334e-05  -1.2197415287259896e-23 -1.1282680460009617e-22 -7.8504416257348624e-05  2.9105902685430654e-23 -1.2719042903097455e-22 -8.7348084382695673e-05  9.3997679150623696e-24 -9.8518049966397678e-23 -7.0305881222746099e-05  -3.7685940913881548e-23 -8.1470232470084945e-23 -6.2257699735544054e-05  5.8682627678758385e-23 -1.1434622594223834e-22 -7.8814944728257912e-05  -6.5752914724365509e-22 -3.4580404092464094e-21 -8.9584014243506999e-04  -1.1537174264406863e-21 -3.7535470545812988e-21 -9.1863663077724263e-04  -7.1266541653653911e-22 -4.0626641216475045e-21 -9.3945226179369145e-04  -1.7615976034316796e-21 -4.0651015767074423e-21 -9.4214309981409405e-04  -1.3189015274504339e-21 -4.3743687851829501e-21 -9.6284213836644243e-04  -1.9830863260206336e-21 -4.7125911220274761e-21 -9.8696758902833072e-04  -2.4518243083714936e-21 -4.3870257598386595e-21 -9.6626365103452412e-04  -8.0218404252914848e-22 -4.6994658141834898e-21 -9.8386485322868571e-04  -1.5023870033780819e-21 -5.0450350008134255e-21 -1.0079225887500735e-03  7.9871762455272942e-23 -2.4208906540479043e-22 -1.3630212197787142e-04  1.7130399975900790e-23 -2.5683931955599009e-22 -1.4683522324709933e-04  2.1787678061590395e-23 -2.1244299551566556e-22 -1.2569839241964044e-04  -1.2153379588678977e-23 -2.3108220922663419e-22 -1.3596014023340154e-04  -1.6830303084013606e-23 -2.6624788871574581e-22 -1.5770356459789031e-04  -7.7996708041844024e-24 -1.9444366606481519e-22 -1.1545882021799008e-04  -1.7858469385748625e-23 -4.7671038920571623e-22 -2.8235392669231322e-04  -3.9200004677256993e-23 -4.2470224921146905e-22 -2.5553242940154388e-04  3.1138313827708865e-23 -4.5879276375247548e-22 -2.6907217938720846e-04  4.2108470063677088e-24 -4.0124349174695463e-22 -2.4265426908517065e-04  -3.5566176764909316e-23 -3.8002479351455923e-22 -2.2959351278211695e-04  8.6540974364611759e-23 -4.3832583470472110e-22 -2.5601701364258856e-04  9.8180241480653474e-23 -5.6349902450616602e-22 -3.3925064873662478e-04  6.9514484513261958e-23 -5.9306130006594722e-22 -3.5342329062643455e-04  4.6553996785244304e-23 -5.3831031382644278e-22 -3.2447390854563996e-04  -1.3140364320567035e-25 -5.6905986129115363e-22 -3.3846986044065919e-04  3.3456813909363611e-23 -6.1419061917740213e-22 -3.6775704193402388e-04  -9.7404679152127926e-24 -5.1113727124543972e-22 -3.1000578121719897e-04  3.5066702170464311e-23 -9.7943906766741584e-22 -5.2761213962845030e-04  3.0952321404961774e-23 -8.9685883722392035e-22 -4.9380461897430674e-04  9.5869006996520625e-23 -9.4221171316799292e-22 -5.1123161970567676e-04  1.0103463281766111e-22 -8.5019811361466624e-22 -4.7788147281605382e-04  4.1571068343648828e-23 -8.1768514001481210e-22 -4.6089906415517620e-04  2.2111772827068636e-22 -8.9311602929262188e-22 -4.9507674209207887e-04  2.4402020459607842e-22 -1.1895951544850514e-21 -5.9878558776589358e-04  1.3760310344182248e-22 -1.2434245411635100e-21 -6.1623934514623069e-04  9.7689434561620070e-23 -1.1246645746959692e-21 -5.8043885988115463e-04  -7.9411153296089326e-24 -1.1817649763107012e-21 -5.9771562686250761e-04  -2.6441693261064335e-24 -1.3080715240687019e-21 -6.3410770233096928e-04  7.6799862723365020e-24 -1.0807680032239197e-21 -5.6226628653145727e-04  -3.9848911972492822e-23 -2.6982136465857825e-21 -8.3160068497105573e-04  -8.5782647564736329e-23 -2.3076891871883665e-21 -7.9027669414433546e-04  3.1603443729161635e-22 -2.5025520298478104e-21 -8.1052063477795775e-04  2.5509095549843990e-22 -2.1181279102773180e-21 -7.6973747609693742e-04  -9.3953149269913655e-23 -1.9571769472335498e-21 -7.4977105640881717e-04  6.6385268796254813e-22 -2.3104711573889907e-21 -7.8987980929307109e-04  1.0586520037582471e-21 -3.7712988239725396e-21 -9.1602446259730333e-04  5.2734170614815830e-22 -4.0950569847980081e-21 -9.3821983550741684e-04  5.1220659748267144e-22 -3.4652785255857359e-21 -8.9486369375728326e-04  -9.2325151315787974e-23 -3.7637887948561002e-21 -9.1695505821312345e-04  -1.3957146301010468e-22 -4.3874583747092185e-21 -9.6079271351295393e-04  -5.2607824844515165e-23 -3.1659822230240639e-21 -8.7389926057982955e-04  -2.1041970462421494e-23 -3.9568196233208071e-23 -3.0764851370905048e-05  7.6544568565721218e-24 -2.8549583135612149e-23 -2.5387874447737428e-05  -2.1101544328812182e-23 -2.0976862061781041e-23 -2.1925022057233797e-05  7.7163598965997179e-24 -2.3799935287665988e-23 -2.0527482632969324e-05  1.7792735169827754e-23 -1.7205625677171616e-23 -1.7372515672928626e-05  -6.0517695245462490e-24 -1.4232580752686946e-23 -1.3362612426106423e-05  2.2839322325060411e-23 -2.0433117426620956e-23 -1.6207347955771231e-05  -1.2388695408599962e-23 7.0769831841277737e-24 -1.4485892348911834e-05  -4.8787561946036480e-23 2.3467192722954529e-24 -1.0800351885289255e-05  -6.4395798750968671e-23 -2.1032286327439076e-23 -8.5272084595535502e-06  -4.5362161317744869e-22 -1.3136151711894159e-21 -6.4687578280365088e-04  -4.4563264961013976e-22 -1.3767071029836055e-21 -6.6710212446314512e-04  -8.1334689613655621e-22 -1.4818111560482656e-21 -6.8630954942760006e-04  -7.2508802591170366e-22 -1.6045958109837139e-21 -7.0718521041076882e-04  -4.7453518181517022e-22 -1.5031284714612329e-21 -6.8839432506243