<?xml version="1.0"?>
<VTKFile type="UnstructuredGrid"  version="0.1"  >
<UnstructuredGrid>
<Piece  NumberOfPoints="8511" NumberOfCells="16634">
<Points>
<DataArray  type="Float64"  NumberOfComponents="3"  format="ascii">0 0.56640625 0  0.00390625 0.56640625 0  0.00390625 0.5703125 0  0 0.5703125 0  0.0078125 0.5703125 0  0.00390625 0.57421875 0  0 0.57421875 0  0.0078125 0.57421875 0  0.01171875 0.5703125 0  0.01171875 0.57421875 0  0.015625 0.5703125 0  0.015625 0.57421875 0  0.01953125 0.5703125 0  0.01953125 0.57421875 0  0.0234375 0.5703125 0  0.0234375 0.57421875 0  0.02734375 0.57421875 0  0.00390625 0.578125 0  0 0.578125 0  0.0078125 0.578125 0  0.01171875 0.578125 0  0.015625 0.578125 0  0.01953125 0.578125 0  0.0234375 0.578125 0  0.02734375 0.578125 0  0.03125 0.578125 0  0.00390625 0.58203125 0  0 0.58203125 0  0.0078125 0.58203125 0  0.01171875 0.58203125 0  0.015625 0.58203125 0  0.01953125 0.58203125 0  0.0234375 0.58203125 0  0.02734375 0.58203125 0  0.03125 0.58203125 0  0.03515625 0.58203125 0  0.00390625 0.5859375 0  0 0.5859375 0  0.0078125 0.5859375 0  0.01171875 0.5859375 0  0.015625 0.5859375 0  0.01953125 0.5859375 0  0.0234375 0.5859375 0  0.02734375 0.5859375 0  0.03125 0.5859375 0  0.03515625 0.5859375 0  0.0390625 0.58203125 0  0.0390625 0.5859375 0  0.04296875 0.5859375 0  0.00390625 0.58984375 0  0 0.58984375 0  0.0078125 0.58984375 0  0.01171875 0.58984375 0  0.015625 0.58984375 0  0.01953125 0.58984375 0  0.0234375 0.58984375 0  0.02734375 0.58984375 0  0.03125 0.58984375 0  0.03515625 0.58984375 0  0.0390625 0.58984375 0  0.04296875 0.58984375 0  0.046875 0.5859375 0  0.046875 0.58984375 0  0.05078125 0.58984375 0  0.00390625 0.59375 0  0 0.59375 0  0.0078125 0.59375 0  0.01171875 0.59375 0  0.015625 0.59375 0  0.01953125 0.59375 0  0.0234375 0.59375 0  0.02734375 0.59375 0  0.03125 0.59375 0  0.03515625 0.59375 0  0.0390625 0.59375 0  0.04296875 0.59375 0  0.046875 0.59375 0  0.05078125 0.59375 0  0.0546875 0.59375 0  0.00390625 0.59765625 0  0 0.59765625 0  0.0078125 0.59765625 0  0.01171875 0.59765625 0  0.015625 0.59765625 0  0.01953125 0.59765625 0  0.0234375 0.59765625 0  0.02734375 0.59765625 0  0.03125 0.59765625 0  0.03515625 0.59765625 0  0.0390625 0.59765625 0  0.04296875 0.59765625 0  0.046875 0.59765625 0  0.05078125 0.59765625 0  0.0546875 0.59765625 0  0.05859375 0.59765625 0  0.00390625 0.6015625 0  0 0.6015625 0  0.0078125 0.6015625 0  0.01171875 0.6015625 0  0.015625 0.6015625 0  0.01953125 0.6015625 0  0.0234375 0.6015625 0  0.02734375 0.6015625 0  0.03125 0.6015625 0  0.03515625 0.6015625 0  0.0390625 0.6015625 0  0.04296875 0.6015625 0  0.046875 0.6015625 0  0.05078125 0.6015625 0  0.0546875 0.6015625 0  0.05859375 0.6015625 0  0.0625 0.6015625 0  0.00390625 0.60546875 0  0 0.60546875 0  0.0078125 0.60546875 0  0.01171875 0.60546875 0  0.015625 0.60546875 0  0.01953125 0.60546875 0  0.0234375 0.60546875 0  0.02734375 0.60546875 0  0.03125 0.60546875 0  0.03515625 0.60546875 0  0.0390625 0.60546875 0  0.04296875 0.60546875 0  0.046875 0.60546875 0  0.05078125 0.60546875 0  0.0546875 0.60546875 0  0.05859375 0.60546875 0  0.0625 0.60546875 0  0.06640625 0.6015625 0  0.06640625 0.60546875 0  0.0703125 0.60546875 0  0.00390625 0.609375 0  0 0.609375 0  0.0078125 0.609375 0  0.01171875 0.609375 0  0.015625 0.609375 0  0.01953125 0.609375 0  0.0234375 0.609375 0  0.02734375 0.609375 0  0.03125 0.609375 0  0.03515625 0.609375 0  0.0390625 0.609375 0  0.04296875 0.609375 0  0.046875 0.609375 0  0.05078125 0.609375 0  0.0546875 0.609375 0  0.05859375 0.609375 0  0.0625 0.609375 0  0.06640625 0.609375 0  0.0703125 0.609375 0  0.07421875 0.609375 0  0.00390625 0.61328125 0  0 0.61328125 0  0.0078125 0.61328125 0  0.01171875 0.61328125 0  0.015625 0.61328125 0  0.01953125 0.61328125 0  0.0234375 0.61328125 0  0.02734375 0.61328125 0  0.03125 0.61328125 0  0.03515625 0.61328125 0  0.0390625 0.61328125 0  0.04296875 0.61328125 0  0.046875 0.61328125 0  0.05078125 0.61328125 0  0.0546875 0.61328125 0  0.05859375 0.61328125 0  0.0625 0.61328125 0  0.06640625 0.61328125 0  0.0703125 0.61328125 0  0.07421875 0.61328125 0  0.078125 0.609375 0  0.078125 0.61328125 0  0.08203125 0.61328125 0  0.00390625 0.6171875 0  0 0.6171875 0  0.0078125 0.6171875 0  0.01171875 0.6171875 0  0.015625 0.6171875 0  0.01953125 0.6171875 0  0.0234375 0.6171875 0  0.02734375 0.6171875 0  0.03125 0.6171875 0  0.03515625 0.6171875 0  0.0390625 0.6171875 0  0.04296875 0.6171875 0  0.046875 0.6171875 0  0.05078125 0.6171875 0  0.0546875 0.6171875 0  0.05859375 0.6171875 0  0.0625 0.6171875 0  0.06640625 0.6171875 0  0.0703125 0.6171875 0  0.07421875 0.6171875 0  0.078125 0.6171875 0  0.08203125 0.6171875 0  0.0859375 0.6171875 0  0.00390625 0.62109375 0  0 0.62109375 0  0.0078125 0.62109375 0  0.01171875 0.62109375 0  0.015625 0.62109375 0  0.01953125 0.62109375 0  0.0234375 0.62109375 0  0.02734375 0.62109375 0  0.03125 0.62109375 0  0.03515625 0.62109375 0  0.0390625 0.62109375 0  0.04296875 0.62109375 0  0.046875 0.62109375 0  0.05078125 0.62109375 0  0.0546875 0.62109375 0  0.05859375 0.62109375 0  0.0625 0.62109375 0  0.06640625 0.62109375 0  0.0703125 0.62109375 0  0.07421875 0.62109375 0  0.078125 0.62109375 0  0.08203125 0.62109375 0  0.0859375 0.62109375 0  0.08984375 0.6171875 0  0.08984375 0.62109375 0  0.09375 0.6171875 0  0.09375 0.62109375 0  0.09765625 0.6171875 0  0.09765625 0.62109375 0  0.1015625 0.6171875 0  0.1015625 0.62109375 0  0.10546875 0.6171875 0  0.10546875 0.62109375 0  0.109375 0.62109375 0  0.00390625 0.625 0  0 0.625 0  0.0078125 0.625 0  0.01171875 0.625 0  0.015625 0.625 0  0.01953125 0.625 0  0.0234375 0.625 0  0.02734375 0.625 0  0.03125 0.625 0  0.03515625 0.625 0  0.0390625 0.625 0  0.04296875 0.625 0  0.046875 0.625 0  0.05078125 0.625 0  0.0546875 0.625 0  0.05859375 0.625 0  0.0625 0.625 0  0.06640625 0.625 0  0.0703125 0.625 0  0.07421875 0.625 0  0.078125 0.625 0  0.08203125 0.625 0  0.0859375 0.625 0  0.08984375 0.625 0  0.09375 0.625 0  0.09765625 0.625 0  0.1015625 0.625 0  0.10546875 0.625 0  0.109375 0.625 0  0.11328125 0.625 0  0.00390625 0.62890625 0  0 0.62890625 0  0.0078125 0.62890625 0  0.01171875 0.62890625 0  0.015625 0.62890625 0  0.01953125 0.62890625 0  0.0234375 0.62890625 0  0.02734375 0.62890625 0  0.03125 0.62890625 0  0.03515625 0.62890625 0  0.0390625 0.62890625 0  0.04296875 0.62890625 0  0.046875 0.62890625 0  0.05078125 0.62890625 0  0.0546875 0.62890625 0  0.05859375 0.62890625 0  0.0625 0.62890625 0  0.06640625 0.62890625 0  0.0703125 0.62890625 0  0.07421875 0.62890625 0  0.078125 0.62890625 0  0.08203125 0.62890625 0  0.0859375 0.62890625 0  0.08984375 0.62890625 0  0.09375 0.62890625 0  0.09765625 0.62890625 0  0.1015625 0.62890625 0  0.10546875 0.62890625 0  0.109375 0.62890625 0  0.11328125 0.62890625 0  0.1171875 0.62890625 0  0.00390625 0.6328125 0  0 0.6328125 0  0.0078125 0.6328125 0  0.01171875 0.6328125 0  0.015625 0.6328125 0  0.01953125 0.6328125 0  0.0234375 0.6328125 0  0.02734375 0.6328125 0  0.03125 0.6328125 0  0.03515625 0.6328125 0  0.0390625 0.6328125 0  0.04296875 0.6328125 0  0.046875 0.6328125 0  0.05078125 0.6328125 0  0.0546875 0.6328125 0  0.05859375 0.6328125 0  0.0625 0.6328125 0  0.06640625 0.6328125 0  0.0703125 0.6328125 0  0.07421875 0.6328125 0  0.078125 0.6328125 0  0.08203125 0.6328125 0  0.0859375 0.6328125 0  0.08984375 0.6328125 0  0.09375 0.6328125 0  0.09765625 0.6328125 0  0.1015625 0.6328125 0  0.10546875 0.6328125 0  0.109375 0.6328125 0  0.11328125 0.6328125 0  0.1171875 0.6328125 0  0.12109375 0.6328125 0  0.00390625 0.63671875 0  0 0.63671875 0  0.0078125 0.63671875 0  0.01171875 0.63671875 0  0.015625 0.63671875 0  0.01953125 0.63671875 0  0.0234375 0.63671875 0  0.02734375 0.63671875 0  0.03125 0.63671875 0  0.03515625 0.63671875 0  0.0390625 0.63671875 0  0.04296875 0.63671875 0  0.046875 0.63671875 0  0.05078125 0.63671875 0  0.0546875 0.63671875 0  0.05859375 0.63671875 0  0.0625 0.63671875 0  0.06640625 0.63671875 0  0.0703125 0.63671875 0  0.07421875 0.63671875 0  0.078125 0.63671875 0  0.08203125 0.63671875 0  0.0859375 0.63671875 0  0.08984375 0.63671875 0  0.09375 0.63671875 0  0.09765625 0.63671875 0  0.1015625 0.63671875 0  0.10546875 0.63671875 0  0.109375 0.63671875 0  0.11328125 0.63671875 0  0.1171875 0.63671875 0  0.12109375 0.63671875 0  0.125 0.63671875 0  0.00390625 0.640625 0  0 0.640625 0  0.0078125 0.640625 0  0.01171875 0.640625 0  0.015625 0.640625 0  0.01953125 0.640625 0  0.0234375 0.640625 0  0.02734375 0.640625 0  0.03125 0.640625 0  0.03515625 0.640625 0  0.0390625 0.640625 0  0.04296875 0.640625 0  0.046875 0.640625 0  0.05078125 0.640625 0  0.0546875 0.640625 0  0.05859375 0.640625 0  0.0625 0.640625 0  0.06640625 0.640625 0  0.0703125 0.640625 0  0.07421875 0.640625 0  0.078125 0.640625 0  0.08203125 0.640625 0  0.0859375 0.640625 0  0.08984375 0.640625 0  0.09375 0.640625 0  0.09765625 0.640625 0  0.1015625 0.640625 0  0.10546875 0.640625 0  0.109375 0.640625 0  0.11328125 0.640625 0  0.1171875 0.640625 0  0.12109375 0.640625 0  0.125 0.640625 0  0.12890625 0.640625 0  0.00390625 0.64453125 0  0 0.64453125 0  0.0078125 0.64453125 0  0.01171875 0.64453125 0  0.015625 0.64453125 0  0.01953125 0.64453125 0  0.0234375 0.64453125 0  0.02734375 0.64453125 0  0.03125 0.64453125 0  0.03515625 0.64453125 0  0.0390625 0.64453125 0  0.04296875 0.64453125 0  0.046875 0.64453125 0  0.05078125 0.64453125 0  0.0546875 0.64453125 0  0.05859375 0.64453125 0  0.0625 0.64453125 0  0.06640625 0.64453125 0  0.0703125 0.64453125 0  0.07421875 0.64453125 0  0.078125 0.64453125 0  0.08203125 0.64453125 0  0.0859375 0.64453125 0  0.08984375 0.64453125 0  0.09375 0.64453125 0  0.09765625 0.64453125 0  0.1015625 0.64453125 0  0.10546875 0.64453125 0  0.109375 0.64453125 0  0.11328125 0.64453125 0  0.1171875 0.64453125 0  0.12109375 0.64453125 0  0.125 0.64453125 0  0.12890625 0.64453125 0  0.1328125 0.64453125 0  0.00390625 0.6484375 0  0 0.6484375 0  0.0078125 0.6484375 0  0.0
[...]
<CellData  Scalars="f_11"> 
<DataArray  type="Float64"  Name="f_11"  format="ascii">7.9938931232342234e-03   3.9919849240583191e-03   1.5975775116197178e-02   7.9724272944253424e-03   3.9809915553946024e-03   1.9933666038514555e-02   1.5932226303284554e-02   3.1890450793750788e-02   2.7879601882955549e-02   4.3841036469917799e-02   3.9821307330782901e-02   5.5783841159149972e-02   5.1755683272295280e-02   6.7717185830946755e-02   6.3681229872390860e-02   7.5596142322575055e-02   7.9498155487593685e-03   3.9693914762334755e-03   1.9877295924462343e-02   1.5886320800610081e-02   3.1800117360079365e-02   2.7799250808448289e-02   4.3716643261130374e-02   3.9706302285618923e-02   5.5625297583723025e-02   5.1605986792960405e-02   6.7524507917441592e-02   6.3496732582815865e-02   7.9412615672145012e-02   7.5376937252999140e-02   8.7244983614363517e-02   7.9259709719477316e-03   3.9571651942405901e-03   1.9817909258732610e-02   1.5837983395296438e-02   3.1705062097592496e-02   2.7714695347011840e-02   4.3585783313136367e-02   3.9585409763429662e-02   5.5458508153080809e-02   5.1448645732139725e-02   6.7321717245160270e-02   6.3302802621616069e-02   7.9173874393894214e-02   7.5146429746375393e-02   9.1013308351404698e-02   8.6977877166953557e-02   9.8795545866667903e-02   7.9009020961242835e-03   3.9443407312131102e-03   1.9755474850854979e-02   1.5787199221160408e-02   3.1605212119755192e-02   2.7625917554190957e-02   4.3448370607812876e-02   3.9458540123369412e-02   5.5283463058552501e-02   5.1283561569809996e-02   6.7108929843698956e-02   6.3099452537959747e-02   7.8923257251931306e-02   7.4904671965102435e-02   9.0724884133143807e-02   8.6697708920125210e-02   1.0251219523399066e-01   9.8476964619814866e-02   1.1428357383817878e-01   1.1024084438609397e-01   1.2198770045309926e-01   7.8746280411213856e-03   3.9309091824380089e-03   1.9690015412332083e-02   1.5734005488257416e-02   3.1500522193236541e-02   2.7532895785767109e-02   4.3304392129463486e-02   3.9325669554712610e-02   5.5100065226301863e-02   5.1110726677089366e-02   6.6886051377776284e-02   6.2886565493393026e-02   7.8660812994584037e-02   7.4651669768463519e-02   9.0422832773713296e-02   8.6404523297291494e-02   1.0217054197886037e-01   9.8143585843923922e-02   1.1390234806784406e-01   1.0986727632469456e-01   1.2561662951787228e-01   1.2157400666272916e-01   1.3731179509900548e-01   1.3326214905741748e-01   1.4493015392866981e-01   7.8471480771515837e-03   3.9168787207385508e-03   1.9621571283211195e-02   1.5678432620072676e-02   3.1391029134927757e-02   2.7435714649748845e-02   4.3153813224771645e-02   3.9186799223530813e-02   5.4908341971670306e-02   5.0930151522908286e-02   6.6653070836343656e-02   6.2664185704558811e-02   7.8386532788311508e-02   7.4387418430165331e-02   9.0107199332307861e-02   8.6098353287166432e-02   1.0181353410653349e-01   9.7795457145908191e-02   1.1350399124938762e-01   1.0947720524744008e-01   1.2517697154709956e-01   1.2114202795256007e-01   1.3683087087459067e-01   1.3278831532049337e-01   1.4846411122350084e-01   1.4441447357048418e-01   1.5601893662552571e-01   7.8185051889383770e-03   3.9022841690380537e-03   1.9550165081389917e-02   1.5620506894851787e-02   3.1276819721827546e-02   2.7334408903208398e-02   4.2996698266124067e-02   3.9042032799880846e-02   5.4708292120914978e-02   5.0741852866952881e-02   6.6410054624430781e-02   6.2432351122127895e-02   7.8100449261480479e-02   7.4111969072114953e-02   8.9778015569097841e-02   8.5779227263764649e-02   1.0144124078763514e-01   9.7432644828748749e-02   1.1308858373845525e-01   1.0907069583701726e-01   1.2471849787616408e-01   1.2069183973537415e-01   1.3632938020764485e-01   1.3229450564202930e-01   1.4791962323062707e-01   1.4387708492170720e-01   1.5948766946018555e-01   1.5543799146431264e-01   1.6697565405902270e-01   7.7887031121786675e-03   3.8870944256112106e-03   1.9475862208609678e-02   1.5560279346628092e-02   3.1157894985438479e-02   2.7229006513713884e-02   4.2833122904700094e-02   3.8891395385065142e-02   5.4499990695227776e-02   5.0545926445112521e-02   6.6157001201919266e-02   6.2191079823950328e-02   7.7802622212035238e-02   7.3825354576915636e-02   8.9435344192945257e-02   8.5447219270614577e-02   1.0105371249434912e-01   9.7055200206883463e-02   1.1265620592570982e-01   1.0864781859511413e-01   1.2424126814730349e-01   1.2022352230810116e-01   1.3580736582796635e-01   1.3178078596885592e-01   1.4735288988422673e-01   1.4331804502027182e-01   1.5887622523217709e-01   1.5483365992542558e-01   1.7037582154696210e-01   1.6632606885014578e-01   1.7779368405589627e-01   7.7577358682279288e-03   3.8713345927917767e-03   1.9398646608520476e-02   1.5497711719149461e-02   3.1034335023107897e-02   2.7119557985550321e-02   4.2663102202376846e-02   3.8734929698142698e-02   5.4283500505746131e-02   5.0342404045885372e-02   6.5893989312190523e-02   6.1940474265494976e-02   7.7493068745423388e-02   7.3527621286597539e-02   8.9079244992842616e-02   8.5102360478614497e-02   1.0065101928302146e-01   9.6663189031191879e-02   1.1220690625153044e-01   1.0820861928741494e-01   1.2374538766419335e-01   1.1973715897936965e-01   1.3526492829780107e-01   1.3124727556471724e-01   1.4676396241833073e-01   1.4273742540852569e-01   1.5824087692497532e-01   1.5420602250744572e-01   1.6969406235347800e-01   1.6565143409933836e-01   1.8112198958429843e-01   1.7707212069686851e-01   1.9252306015275508e-01   1.8846649941166868e-01   1.9983300321003750e-01   7.7256100283228449e-03   3.8549862335647768e-03   1.9318528730888650e-02   1.5432828215638348e-02   3.0906122283144703e-02   2.7006027960004935e-02   4.2486715597683598e-02   3.8572684628948466e-02   5.4058857766204844e-02   5.0131342277562323e-02   6.5621085504712906e-02   6.1680565656622201e-02   7.7171873706621111e-02   7.3218849122083887e-02   8.8709740900683551e-02   8.4744699811363650e-02   1.0023320513361049e-01   9.6256641554565356e-02   1.1174075778922148e-01   1.0775317393766071e-01   1.2323091664572691e-01   1.1923280204793067e-01   1.3470217235472165e-01   1.3069404203715373e-01   1.4615295668728609e-01   1.4213535643440850e-01   1.5758168175042594e-01   1.5355515146632917e-01   1.6898676417816641e-01   1.6495186487674407e-01   1.8036662496475614e-01   1.7632389681670441e-01   1.9171971609946259e-01   1.8766970575524872e-01   2.0304446194237766e-01   1.9898773202488101e-01   2.1027640132160721e-01   7.6923155924079343e-03   3.8380577012828562e-03   1.9235501081483978e-02   1.5365612236545020e-02   3.0773269908024797e-02   2.6888443535745071e-02   4.2303955912374555e-02   3.8404634909840973e-02   5.3826129625440679e-02   4.9912774719697600e-02   6.5338327804783575e-02   6.1411407637912550e-02   7.6839082305795392e-02   7.2899076705296342e-02   8.8326902028804416e-02   8.4374307214962724e-02   9.9800312641882410e-02   9.5835614239969627e-02   1.1125782450864642e-01   1.0728152683918583e-01   1.2269793582391571e-01   1.1871054219636985e-01   1.3411916101203888e-01   1.3012116932782272e-01   1.4551997469710867e-01   1.4151190981437414e-01   1.5689878134837462e-01   1.5288120492672513e-01   1.6825402931627367e-01   1.6422747624062109e-01   1.7958414607337284e-01   1.7554917805552356e-01   1.9088756684370733e-01   1.8684473535874857e-01   2.0216275245731655e-01   1.9811259619585614e-01   2.1340813023094676e-01   2.0935121321029512e-01   2.2462211663360121e-01   2.2055898554341249e-01   2.3173438983677874e-01   7.6578595916211951e-03   3.8205475849895595e-03   1.9149571435245101e-02   1.5296076663589529e-02   3.0635782070007372e-02   2.6766799426418846e-02   4.2114836570381543e-02   3.8230810099764374e-02   5.3585314866735609e-02   4.9686698320499385e-02   6.5045773410379634e-02   6.1133036018506816e-02   7.6494752449828132e-02   7.2568367301229023e-02   8.7930790891773067e-02   8.3991239676331861e-02   9.9352419176262433e-02   9.5400190673694568e-02   1.1075815935550183e-01   1.0679375013886865e-01   1.2214652279542758e-01   1.1817043768087639e-01   1.3351601413060493e-01   1.2952876129544422e-01   1.4486512556323836e-01   1.4086722159463430e-01   1.5619231656571037e-01   1.5218430217636308e-01   1.6749602923466117e-01   1.6347844652276228e-01   1.7877470503960244e-01   1.7474810929994877e-01   1.9002678775765064e-01   1.8599172556798360e-01   2.0125072223106569e-01   1.9720776153643726e-01   2.1244494268086028e-01   2.0839460808362531e-01   2.2360789392777580e-01   2.1955076820352112e-01   2.3473796520676457e-01   2.3067460050443775e-01   2.4176449887654353e-01   7.6222459151944208e-03   3.8024612667533122e-03   1.9060748114068087e-02   1.5224229352326804e-02   3.0493674801908264e-02   2.6641118259505388e-02   4.1919370530522602e-02   3.8051218459447353e-02   5.3336443077502016e-02   4.9453142405727374e-02   6.4743449242414500e-02   6.0845473427340785e-02   7.6138938814218418e-02   7.2226758405114277e-02   8.7521474055735238e-02   8.3595558566634184e-02   9.8889599224020089e-02   9.4950433850384000e-02   1.1024185476454507e-01   1.0628993268715435e-01   1.2157675130867909e-01   1.1761257709722278e-01   1.3289281616829837e-01   1.2891689083598118e-01   1.4418854292800642e-01   1.4020139013054589e-01   1.5546241891542295e-01   1.5146456372152570e-01   1.6671289560923419e-01   1.6270488214304996e-01   1.7793843530409015e-01   1.7392080349640671e-01   1.8913747773451350e-01   1.8511078323979702e-01   2.0030849944125342e-01   1.9627329187552517e-01   2.1144987930434284e-01   2.0740673147265298e-01   2.2256010154138442e-01   2.1850954735646624e-01   2.3363756638542243e-01   2.2958019325799750e-01   2.4468062493040479e-01   2.4061705628714991e-01   2.5568776106694202e-01   2.5161848159021133e-01   2.6665716618467755e-01   2.6258295180557711e-01   2.7758719460202591e-01   2.7350861226792428e-01   2.8847626918225222e-01   2.8439388227692947e-01   2.9932275750392184e-01   2.9523721767880784e-01   3.0603693420504152e-01   7.5854786634092560e-03   3.7837974619646247e-03   1.8969052586738162e-02   1.5150086520988933e-02   3.0346969246703492e-02   2.6511421758879460e-02   4.1717598376185938e-02   3.7865906679144939e-02   5.3079540071434603e-02   4.9212148810617092e-02   6.4431386743287411e-02   6.0548754682057920e-02   7.5771686518844347e-02   7.1874291027390444e-02   8.7099005341903415e-02   8.3187313935795135e-02   9.8411920582298876e-02   9.4486407588681154e-02   1.0970897779123445e-01   1.0577013193188874e-01   1.2098871329728826e-01   1.1703703627357696e-01   1.3224964937287431e-01   1.2828564552411098e-01   1.4349030645217759e-01   1.3951449031295174e-01   1.5470917067969508e-01   1.5072206632985413e-01   1.6590472183956445e-01   1.6190686596582796e-01   1.7707541691236806e-01   1.7306734875494442e-01   1.8821974428883950e-01   1.8420200001015630e-01   1.9933612771864170e-01   1.9530927684155761e-01   2.1042302170005564e-01   2.0638762562436863e-01   2.2147883407811902e-01   2.1743545636642711e-01   2.3250203150789953e-01   2.2845122662378256e-01   2.4349099469716162e-01   2.3943338422929933e-01   2.5444423636631985e-01   2.5038035117336799e-01   2.6535992908551492e-01   2.6129044380283517e-01   2.7623647173907484e-01   2.7216200301550081e-01   2.8707215929587698e-01   2.8299333113152325e-01   2.9786550753849911e-01   2.9378283296775298e-01   3.0861476170163360e-01   3.0452887139338797e-01   3.1522977829168625e-01   7.5475757732195205e-03   3.7645753893109377e-03   1.8874496113716749e-02   1.5073666533622312e-02   3.0195706325599030e-02   2.6377746133059998e-02   4.1509548972641835e-02   3.7674898061000529e-02   5.2814666887427392e-02   4.8963759821924586e-02   6.4109635910814228e-02   6.0242940045700723e-02   7.5393032487445430e-02   7.1511014628071926e-02   8.6663445188712246e-02   8.2766562635299676e-02   9.7919444958900176e-02   9.4008173987857505e-02   1.0915960678130247e-01   1.0523443272290947e-01   1.2038248030729432e-01   1.1644389639940170e-01   1.3158660416609513e-01   1.2763511594758831e-01   1.4277049690167073e-01   1.3880661471820840e-01   1.5393266529019994e-01   1.4995691237168188e-01   1.6507159188331505e-01   1.6108449584453780e-01   1.7618576619901610e-01   1.7218786534816782e-01   1.8727366309051960e-01   1.8326548948705013e-01   1.9833374621523581e-01   1.9431586897664518e-01   2.0936445148040406e-01   2.0533742305857478e-01   2.2036422917623910e-01   2.1632862047565618e-01   2.3133150423331025e-01   2.2728788460482532e-01   2.4226471049999365e-01   2.3821367356686027e-01   2.5316240613001617e-01   2.4910445923165370e-01   2.6402277024355636e-01   2.5995861502489948e-01   2.7484413208903030e-01   2.7077438467181392e-01   2.8562488153841509e-01   2.8155015128678557e-01   2.9636336926029361e-01   2.9228425379089201e-01   3.0705794498978722e-01   3.0297503070946730e-01   3.1770704785761200e-01   3.1362110574222146e-01   3.2422061404391100e-01   7.5085439993162603e-03   3.7447825819556953e-03   1.8777128242331215e-02   1.4995006669870890e-02   3.0039906537680780e-02   2.6240118188681636e-02   4.1295279261150349e-02   3.7478249966495923e-02   5.2541850261595351e-02   4.8708021071140535e-02   6.3778253901482354e-02   5.9928071260687374e-02   7.5003055722477230e-02   7.1136995157309271e-02   8.6214853805154590e-02   8.2333369995159666e-02   9.7412251584014328e-02   9.3515812809668031e-02   1.0859382861618888e-01   1.0468291742659654e-01   1.1975815484081331e-01   1.1583326095142434e-01   1.3090377755104754e-01   1.2696540040430238e-01   1.4202922625229020e-01   1.3807787786501660e-01   1.5313301105312846e-01   1.4916920813378493e-01   1.6421364217709494e-01   1.6023791086954228e-01   1.7526960542376580e-01   1.7128247838531113e-01   1.8629940518086216e-01   1.8230141597800334e-01   1.9730150543866978e-01   1.9329320929628246e-01   2.0827436751297362e-01   2.0425632723762932e-01   2.1921643911060759e-01   2.1518921467702418e-01   2.3012617325987700e-01   2.2609033657052205e-01   2.4100199001374661e-01   2.3695811278471954e-01   2.5184244695479108e-01   2.4779109436200816e-01   2.6264582419537130e-01   2.5858760303216988e-01   2.7341042141531935e-01   2.6934601622664872e-01   2.8413454848640507e-01   2.8006456609434938e-01   2.9481665792664691e-01   2.9074168762944697e-01   3.0545504945259472e-01   3.0137570450013673e-01   3.1604836703789380e-01   3.1196522493831474e-01   3.2659525867732908e-01   3.2250874048223160e-01   3.3300476509503030e-01   7.4683968044573666e-03   3.7244449666828873e-03   1.8676955112856868e-02   1.4914107207015023e-02   2.9879635115994469e-02   2.6098594117461800e-02   4.1074814996924412e-02   3.7275990737865458e-02   5.2261165802147333e-02   4.8444989513754477e-02   6.3437292548035276e-02   5.9604214501428582e-02   7.4601804203860964e-02   7.0752287237541928e-02   8.5753309223299240e-02   8.1887807884578584e-02   9.6890420319047293e-02   9.3009401970031005e-02   1.0801173536068667e-01   1.0411567565034865e-01   1.1911583556923670e-01   1.1520522120489170e-01   1.3020127903572815e-01   1.2627660813798422e-01   1.4126660505859995e-01   1.3732838343511572e-01   1.5231034029904408e-01   1.4835908527860234e-01   1.6333099810560045e-01   1.5936723124160168e-01   1.7432709465295715e-01   1.7035134582392922e-01   1.8529712870553808e-01   1.8130993047863014e-01   1.9623959000085894e-01   1.9224149455780409e-01   2.0715295394972694e-01   2.0314451295774832e-01   2.1803567960042308e-01   2.1401745925180332e-01   2.2888622783094240e-01   2.2485879539602288e-01   2.3970302240620808e-01   2.3566694647604097e-01   2.5048463786300934e-01   2.4644048470311661e-01   2.6122935041018636e-01   2.5717773791112486e-01   2.7193552746681626e-01   2.6787708288690076e-01   2.8260150298347486e-01   2.7853686960205076e-01   2.9322561698661653e-01   2.8915541808099632e-01   3.0380629278006527e-01   2.9973108501043194e-01   3.1434205924053343e-01   3.1026258329783241e-01   3.2483166603553243e-01   3.2074812089982979e-01   3.3527338319299804e-01   3.3118681446053128e-01   3.4157601451410163e-01   7.4271416933763545e-03   3.7035441187031853e-03   1.8574001833958784e-02   1.4830988733144772e-02   2.9714897049391401e-02   2.5953153133435814e-02   4.0848216670634901e-02   3.7068164948271025e-02   5.1972637018603891e-02   4.8174687532293453e-02   6.3086811739200652e-02   5.9271408628678628e-02   7.4189348062107585e-02   7.0356949251022594e-02   8.5278879851107048e-02   8.1429941226048907e-02   9.6354034217943973e-02   9.2489014317953686e-02   1.0741341571489038e-01   1.0353279216780024e-01   1.1845561773788879e-01   1.1455987199115548e-01   1.2947921265648885e-01   1.2556883666464830e-01   1.4048275419781969e-01   1.3655825437151939e-01   1.5146477119348961e-01   1.4752665968453216e-01   1.6242380877305165e-01   1.5847260365302104e-01   1.7335837915287072e-01   1.6939460904635262e-01   1.8426700494464968e-01   1.8029120253501024e-01   1.9514818796035419e-01   1.9116089641714695e-01   2.0600041081223527e-01   2.0200218135578968e-01   2.1682215513938352e-01   2.1281354779123093e-01   2.2761188439084279e-01   2.2359346458083604e-01   2.3836803639211032e-01   2.3434038231571716e-01   2.4908916624570954e-01   2.4505283171566042e-01   2.5977361631003604e-01   2.5572919788112358e-01   2.7041975103924398e-01   2.6636789703014047e-01   2.8102591159837270e-01   2.7696723767470538e-01   2.9159051922528234e-01   2.8752565281064874e-01   3.0211188472305261e-01   2.9804143465384603e-01   3.1258863132652237e-01   3.0851324994170543e-01   3.2301935116977387e-01   3.1893944684639458e-01   3.3340265663701357e-01   3.2931861754024389e-01   3.4373613133050240e-01   3.3964934379238204e-01   3.4992914682863391e-01   7.3847621042496345e-03   3.6820818983363699e-03   1.8468254396357214e-02   1.4745625200150277e-02   2.9545686641469459e-02   2.5803800906121388e-02   4.0615475091645412e-02   3.6854741147538422e-02   5.1676301497094138e-02   4.7897139160833400e-02   6.2726845328769723e-02   5.8929687719224903e-02   7.3765742246356000e-02   6.9951037071410482e-02   8.4791638415786436e-02   8.0959840209871570e-02   9.5803171625415892e-02   9.1954736303477974e-02   1.0679895660421328e-01   1.0293435379586825e-01   1.1777759988855027e-01   1.1389730807786555e-01   1.2873768789174805e-01   1.2484219690221966e-01   1.3967778412451856e-01   1.3576759368697108e-01   1.5059644203314654e-01   1.4667206378178221e-01   1.6149220502041545e-01   1.5755415475068815e-01   1.7236361879808224e-01   1.6841241996723352e-01   1.8320920047343864e-01   1.7924538543138580e-01   1.9402747391973754e-01   1.9005158200902175e-01   2.0481692691139211e-01   2.0082951111163810e-01   2.1557605622343592e-01   2.1157766489515478e-01   2.2630334373262964e-01   2.2229454281753547e-01   2.3699723512112580e-01   2.3297859527309500e-01   2.4765627483704181e-01   2.4362836622519729e-01   2.5827881697252697e-01   2.5424222853421485e-01   2.6886328884550087e-01   2.6481862728576683e-01   2.7940805460162260e-01   2.7535595984473016e-01   2.8991143086411186e-01   2.8585258724582735e-01   3.0037203964847259e-01   2.9630690379076280e-01   3.1078816817242322e-01   3.0671751107523504e-01   3.2115851766270681e-01   3.1708272386504671e-01   3.3148138899386470e-01   3.2740119338257456e-01   3.4175505009667273e-01   3.3767115090408334e-01   3.5197779254858197e-01   3.4789085532837172e-01   3.5805870261790762e-01   7.3412686892083438e-03   3.6600669248427384e-03   1.8359705122399296e-02   1.4658028137194754e-02   2.9372007774907800e-02   2.5650540266500731e-02   4.0376596703857494e-02   3.6635748901581805e-02   5.1372172573004901e-02   4.7612363171535742e-02   6.2357443810680355e-02   5.8579093959697889e-02   7.3331051887115320e-02   6.9534613372603138e-02   8.4291660338257482e-02   8.0477579217557563e-02   9.5237917191119792e-02   9.1406644236880080e-02   1.0616845143492942e-01   1.0232045038889481e-01   1.1708188235532645e-01   1.1321762853548958e-01   1.2797681152709928e-01   1.2409678856679578e-01   1.3885182114660752e-01   1.3495652977427489e-01   1.4970547106333448e-01   1.4579541923106795e-01   1.6053633528064629e-01   1.5661202961667037e-01   1.7134294955542081e-01   1.6740491432815882e-01   1.82123869375915