<?xml version="1.0"?>
<VTKFile type="UnstructuredGrid"  version="0.1"  >
<UnstructuredGrid>
<Piece  NumberOfPoints="8410" NumberOfCells="16432">
<Points>
<DataArray  type="Float64"  NumberOfComponents="3"  format="ascii">0.6640625 0.234375 0  0.66796875 0.234375 0  0.66796875 0.23828125 0  0.6640625 0.23828125 0  0.671875 0.234375 0  0.671875 0.23828125 0  0.67578125 0.234375 0  0.67578125 0.23828125 0  0.6796875 0.234375 0  0.6796875 0.23828125 0  0.68359375 0.234375 0  0.68359375 0.23828125 0  0.6875 0.234375 0  0.6875 0.23828125 0  0.69140625 0.234375 0  0.69140625 0.23828125 0  0.6953125 0.234375 0  0.6953125 0.23828125 0  0.69921875 0.23828125 0  0.71484375 0.234375 0  0.71875 0.234375 0  0.71875 0.23828125 0  0.71484375 0.23828125 0  0.72265625 0.234375 0  0.72265625 0.23828125 0  0.7265625 0.234375 0  0.7265625 0.23828125 0  0.73046875 0.234375 0  0.73046875 0.23828125 0  0.734375 0.234375 0  0.734375 0.23828125 0  0.73828125 0.234375 0  0.73828125 0.23828125 0  0.7421875 0.234375 0  0.7421875 0.23828125 0  0.74609375 0.234375 0  0.74609375 0.23828125 0  0.75 0.234375 0  0.75 0.23828125 0  0.75390625 0.234375 0  0.75390625 0.23828125 0  0.7578125 0.234375 0  0.7578125 0.23828125 0  0.76171875 0.234375 0  0.76171875 0.23828125 0  0.765625 0.23828125 0  0.5859375 0.23828125 0  0.58984375 0.23828125 0  0.58984375 0.2421875 0  0.5859375 0.2421875 0  0.59375 0.23828125 0  0.59375 0.2421875 0  0.59765625 0.23828125 0  0.59765625 0.2421875 0  0.6015625 0.2421875 0  0.62109375 0.23828125 0  0.625 0.23828125 0  0.625 0.2421875 0  0.62109375 0.2421875 0  0.62890625 0.23828125 0  0.62890625 0.2421875 0  0.6328125 0.2421875 0  0.66015625 0.23828125 0  0.6640625 0.2421875 0  0.66015625 0.2421875 0  0.66796875 0.2421875 0  0.671875 0.2421875 0  0.67578125 0.2421875 0  0.6796875 0.2421875 0  0.68359375 0.2421875 0  0.6875 0.2421875 0  0.69140625 0.2421875 0  0.6953125 0.2421875 0  0.69921875 0.2421875 0  0.703125 0.23828125 0  0.703125 0.2421875 0  0.70703125 0.23828125 0  0.70703125 0.2421875 0  0.7109375 0.23828125 0  0.7109375 0.2421875 0  0.71484375 0.2421875 0  0.71875 0.2421875 0  0.72265625 0.2421875 0  0.7265625 0.2421875 0  0.73046875 0.2421875 0  0.734375 0.2421875 0  0.73828125 0.2421875 0  0.7421875 0.2421875 0  0.74609375 0.2421875 0  0.75 0.2421875 0  0.75390625 0.2421875 0  0.7578125 0.2421875 0  0.76171875 0.2421875 0  0.765625 0.2421875 0  0.76953125 0.23828125 0  0.76953125 0.2421875 0  0.7734375 0.23828125 0  0.7734375 0.2421875 0  0.77734375 0.2421875 0  0.58984375 0.24609375 0  0.59375 0.24609375 0  0.59765625 0.24609375 0  0.6015625 0.24609375 0  0.60546875 0.24609375 0  0.61328125 0.2421875 0  0.6171875 0.2421875 0  0.6171875 0.24609375 0  0.61328125 0.24609375 0  0.62109375 0.24609375 0  0.625 0.24609375 0  0.62890625 0.24609375 0  0.6328125 0.24609375 0  0.63671875 0.24609375 0  0.640625 0.2421875 0  0.64453125 0.2421875 0  0.64453125 0.24609375 0  0.640625 0.24609375 0  0.6484375 0.2421875 0  0.6484375 0.24609375 0  0.65234375 0.2421875 0  0.65234375 0.24609375 0  0.65625 0.2421875 0  0.65625 0.24609375 0  0.66015625 0.24609375 0  0.6640625 0.24609375 0  0.66796875 0.24609375 0  0.671875 0.24609375 0  0.67578125 0.24609375 0  0.6796875 0.24609375 0  0.68359375 0.24609375 0  0.6875 0.24609375 0  0.69140625 0.24609375 0  0.6953125 0.24609375 0  0.69921875 0.24609375 0  0.703125 0.24609375 0  0.70703125 0.24609375 0  0.7109375 0.24609375 0  0.71484375 0.24609375 0  0.71875 0.24609375 0  0.72265625 0.24609375 0  0.7265625 0.24609375 0  0.73046875 0.24609375 0  0.734375 0.24609375 0  0.73828125 0.24609375 0  0.7421875 0.24609375 0  0.74609375 0.24609375 0  0.75 0.24609375 0  0.75390625 0.24609375 0  0.7578125 0.24609375 0  0.76171875 0.24609375 0  0.765625 0.24609375 0  0.76953125 0.24609375 0  0.7734375 0.24609375 0  0.77734375 0.24609375 0  0.78125 0.2421875 0  0.78125 0.24609375 0  0.78515625 0.2421875 0  0.78515625 0.24609375 0  0.7890625 0.2421875 0  0.7890625 0.24609375 0  0.79296875 0.24609375 0  0.84375 0.2421875 0  0.84765625 0.2421875 0  0.84765625 0.24609375 0  0.84375 0.24609375 0  0.8515625 0.24609375 0  0.87109375 0.2421875 0  0.875 0.2421875 0  0.875 0.24609375 0  0.87109375 0.24609375 0  0.87890625 0.2421875 0  0.87890625 0.24609375 0  0.8828125 0.2421875 0  0.8828125 0.24609375 0  0.88671875 0.24609375 0  0.59375 0.25 0  0.58984375 0.25 0  0.59765625 0.25 0  0.6015625 0.25 0  0.60546875 0.25 0  0.609375 0.25 0  0.6171875 0.25 0  0.61328125 0.25 0  0.62109375 0.25 0  0.625 0.25 0  0.62890625 0.25 0  0.6328125 0.25 0  0.63671875 0.25 0  0.640625 0.25 0  0.64453125 0.25 0  0.6484375 0.25 0  0.65234375 0.25 0  0.65625 0.25 0  0.66015625 0.25 0  0.6640625 0.25 0  0.66796875 0.25 0  0.671875 0.25 0  0.67578125 0.25 0  0.6796875 0.25 0  0.68359375 0.25 0  0.6875 0.25 0  0.69140625 0.25 0  0.6953125 0.25 0  0.69921875 0.25 0  0.703125 0.25 0  0.70703125 0.25 0  0.7109375 0.25 0  0.71484375 0.25 0  0.71875 0.25 0  0.72265625 0.25 0  0.7265625 0.25 0  0.73046875 0.25 0  0.734375 0.25 0  0.73828125 0.25 0  0.7421875 0.25 0  0.74609375 0.25 0  0.75 0.25 0  0.75390625 0.25 0  0.7578125 0.25 0  0.76171875 0.25 0  0.765625 0.25 0  0.76953125 0.25 0  0.7734375 0.25 0  0.77734375 0.25 0  0.78125 0.25 0  0.78515625 0.25 0  0.7890625 0.25 0  0.79296875 0.25 0  0.796875 0.24609375 0  0.796875 0.25 0  0.80078125 0.24609375 0  0.80078125 0.25 0  0.8046875 0.24609375 0  0.8046875 0.25 0  0.80859375 0.25 0  0.83984375 0.24609375 0  0.84375 0.25 0  0.83984375 0.25 0  0.84765625 0.25 0  0.8515625 0.25 0  0.85546875 0.25 0  0.86328125 0.24609375 0  0.8671875 0.24609375 0  0.8671875 0.25 0  0.86328125 0.25 0  0.87109375 0.25 0  0.875 0.25 0  0.87890625 0.25 0  0.8828125 0.25 0  0.88671875 0.25 0  0.890625 0.24609375 0  0.890625 0.25 0  0.89453125 0.25 0  0.59375 0.25390625 0  0.59765625 0.25390625 0  0.6015625 0.25390625 0  0.60546875 0.25390625 0  0.609375 0.25390625 0  0.61328125 0.25390625 0  0.6171875 0.25390625 0  0.62109375 0.25390625 0  0.625 0.25390625 0  0.62890625 0.25390625 0  0.6328125 0.25390625 0  0.63671875 0.25390625 0  0.640625 0.25390625 0  0.64453125 0.25390625 0  0.6484375 0.25390625 0  0.65234375 0.25390625 0  0.65625 0.25390625 0  0.66015625 0.25390625 0  0.6640625 0.25390625 0  0.66796875 0.25390625 0  0.671875 0.25390625 0  0.67578125 0.25390625 0  0.6796875 0.25390625 0  0.68359375 0.25390625 0  0.6875 0.25390625 0  0.69140625 0.25390625 0  0.6953125 0.25390625 0  0.69921875 0.25390625 0  0.703125 0.25390625 0  0.70703125 0.25390625 0  0.7109375 0.25390625 0  0.71484375 0.25390625 0  0.71875 0.25390625 0  0.72265625 0.25390625 0  0.7265625 0.25390625 0  0.73046875 0.25390625 0  0.734375 0.25390625 0  0.73828125 0.25390625 0  0.7421875 0.25390625 0  0.74609375 0.25390625 0  0.75 0.25390625 0  0.75390625 0.25390625 0  0.7578125 0.25390625 0  0.76171875 0.25390625 0  0.765625 0.25390625 0  0.76953125 0.25390625 0  0.7734375 0.25390625 0  0.77734375 0.25390625 0  0.78125 0.25390625 0  0.78515625 0.25390625 0  0.7890625 0.25390625 0  0.79296875 0.25390625 0  0.796875 0.25390625 0  0.80078125 0.25390625 0  0.8046875 0.25390625 0  0.80859375 0.25390625 0  0.8125 0.25 0  0.8125 0.25390625 0  0.81640625 0.25 0  0.81640625 0.25390625 0  0.8203125 0.25 0  0.8203125 0.25390625 0  0.82421875 0.25 0  0.82421875 0.25390625 0  0.828125 0.25 0  0.828125 0.25390625 0  0.83203125 0.25 0  0.83203125 0.25390625 0  0.8359375 0.25 0  0.8359375 0.25390625 0  0.83984375 0.25390625 0  0.84375 0.25390625 0  0.84765625 0.25390625 0  0.8515625 0.25390625 0  0.85546875 0.25390625 0  0.859375 0.25 0  0.859375 0.25390625 0  0.86328125 0.25390625 0  0.8671875 0.25390625 0  0.87109375 0.25390625 0  0.875 0.25390625 0  0.87890625 0.25390625 0  0.8828125 0.25390625 0  0.88671875 0.25390625 0  0.890625 0.25390625 0  0.89453125 0.25390625 0  0.8984375 0.25390625 0  0.59765625 0.2578125 0  0.6015625 0.2578125 0  0.60546875 0.2578125 0  0.609375 0.2578125 0  0.61328125 0.2578125 0  0.6171875 0.2578125 0  0.62109375 0.2578125 0  0.625 0.2578125 0  0.62890625 0.2578125 0  0.6328125 0.2578125 0  0.63671875 0.2578125 0  0.640625 0.2578125 0  0.64453125 0.2578125 0  0.6484375 0.2578125 0  0.65234375 0.2578125 0  0.65625 0.2578125 0  0.66015625 0.2578125 0  0.6640625 0.2578125 0  0.66796875 0.2578125 0  0.671875 0.2578125 0  0.67578125 0.2578125 0  0.6796875 0.2578125 0  0.68359375 0.2578125 0  0.6875 0.2578125 0  0.69140625 0.2578125 0  0.6953125 0.2578125 0  0.69921875 0.2578125 0  0.703125 0.2578125 0  0.70703125 0.2578125 0  0.7109375 0.2578125 0  0.71484375 0.2578125 0  0.71875 0.2578125 0  0.72265625 0.2578125 0  0.7265625 0.2578125 0  0.73046875 0.2578125 0  0.734375 0.2578125 0  0.73828125 0.2578125 0  0.7421875 0.2578125 0  0.74609375 0.2578125 0  0.75 0.2578125 0  0.75390625 0.2578125 0  0.7578125 0.2578125 0  0.76171875 0.2578125 0  0.765625 0.2578125 0  0.76953125 0.2578125 0  0.7734375 0.2578125 0  0.77734375 0.2578125 0  0.78125 0.2578125 0  0.78515625 0.2578125 0  0.7890625 0.2578125 0  0.79296875 0.2578125 0  0.796875 0.2578125 0  0.80078125 0.2578125 0  0.8046875 0.2578125 0  0.80859375 0.2578125 0  0.8125 0.2578125 0  0.81640625 0.2578125 0  0.8203125 0.2578125 0  0.82421875 0.2578125 0  0.828125 0.2578125 0  0.83203125 0.2578125 0  0.8359375 0.2578125 0  0.83984375 0.2578125 0  0.84375 0.2578125 0  0.84765625 0.2578125 0  0.8515625 0.2578125 0  0.85546875 0.2578125 0  0.859375 0.2578125 0  0.86328125 0.2578125 0  0.8671875 0.2578125 0  0.87109375 0.2578125 0  0.875 0.2578125 0  0.87890625 0.2578125 0  0.8828125 0.2578125 0  0.88671875 0.2578125 0  0.890625 0.2578125 0  0.89453125 0.2578125 0  0.8984375 0.2578125 0  0.90234375 0.2578125 0  0.6015625 0.26171875 0  0.60546875 0.26171875 0  0.609375 0.26171875 0  0.61328125 0.26171875 0  0.6171875 0.26171875 0  0.62109375 0.26171875 0  0.625 0.26171875 0  0.62890625 0.26171875 0  0.6328125 0.26171875 0  0.63671875 0.26171875 0  0.640625 0.26171875 0  0.64453125 0.26171875 0  0.6484375 0.26171875 0  0.65234375 0.26171875 0  0.65625 0.26171875 0  0.66015625 0.26171
[...]
<CellData  Scalars="f_11"> 
<DataArray  type="Float64"  Name="f_11"  format="ascii">5.8401277440721333e-01   5.8799547934156970e-01   5.7983970379218597e-01   5.8383355184385965e-01   5.7557839312576420e-01   5.7958276038863665e-01   5.7123067925746462e-01   5.7524444060158819e-01   5.6679556819529608e-01   5.7081911260978635e-01   5.6227355751360508e-01   5.6630681729051779e-01   5.5766792860672876e-01   5.6170823049357499e-01   5.5297724770628820e-01   5.5702500423256873e-01   5.5225710656518046e-01   5.2309972286119399e-01   5.2717916687438404e-01   5.1783859358392959e-01   5.2192117235853641e-01   5.1249908878479677e-01   5.1658426887006548e-01   5.0708198736954768e-01   5.1116880794430131e-01   5.0158789559364703e-01   5.0567621684995068e-01   4.9601793456516990e-01   5.0010685491434326e-01   4.9037238010590883e-01   4.9446178947912606e-01   4.8465298896584141e-01   4.8874132568628570e-01   4.7886014646976977e-01   4.8294727362581524e-01   4.7299479910702658e-01   4.7708008655359530e-01   4.6705791089748117e-01   4.7114068668965936e-01   4.6105019190452040e-01   4.6513001811714755e-01   4.5904882218417170e-01   6.5688023865822343e-01   6.6068522473545843e-01   6.5453599897023851e-01   6.5817800877199051e-01   6.5209101417696158e-01   6.5575647118631741e-01   6.5323647466295331e-01   6.3244350546404282e-01   6.3625537421700351e-01   6.2905447118350610e-01   6.3305899016210199e-01   6.2976817571001464e-01   5.9593748749333719e-01   5.9989621571685092e-01   5.9179873253234461e-01   5.9576977919590268e-01   5.8757048183427563e-01   5.9155294638415490e-01   5.8325317091476570e-01   5.8724704068685130e-01   5.7884760953077230e-01   5.8285144672547329e-01   5.7435385211054402e-01   5.7836806960059051e-01   5.6977261923311628e-01   5.7379610318592744e-01   5.6510550522414305e-01   5.6913766671824184e-01   5.6035277602145939e-01   5.6439297509660846e-01   5.5551486580782905e-01   5.5956254182485810e-01   5.5059293886979355e-01   5.5464748893820748e-01   5.4558767417534049e-01   5.4964839659703590e-01   5.4049994600975859e-01   5.4456621687869777e-01   5.3533043350327647e-01   5.3940167127691896e-01   5.3007992463528952e-01   5.3415552254457355e-01   5.2474937457094317e-01   5.2882850493890277e-01   5.1933887997524963e-01   5.2342160115061709e-01   5.1384999825178923e-01   5.1793508931297716e-01   5.0828312898357841e-01   5.1237008867699796e-01   5.0263957474375442e-01   5.0672778307150979e-01   4.9691910853691845e-01   5.0100795100280682e-01   4.9112392052788700e-01   4.9521279409392877e-01   4.8525432093074883e-01   4.8934263077064016e-01   4.7931121978198393e-01   4.8339832665633736e-01   4.7329556782239690e-01   4.7738081311900626e-01   4.6720825446936198e-01   4.7129102803199385e-01   4.6105006351264183e-01   4.6512985100374016e-01   4.5482227869930647e-01   4.5889812472798058e-01   4.4852565816274131e-01   4.5259709084565874e-01   4.4622760668122874e-01   6.6560470620405610e-01   6.6322853110091973e-01   6.6684997070310237e-01   6.6075287879453781e-01   6.6439704270858113e-01   6.5817800558984585e-01   6.6184438932167367e-01   6.5919227154577309e-01   6.4689405576016645e-01   6.5064355030703414e-01   6.4364590966713620e-01   6.4759867266942550e-01   6.4066988385998280e-01   6.4445724542556804e-01   6.3741432455348812e-01   6.4121981235720482e-01   6.3388580311086018e-01   6.3788675013586760e-01   6.3428076895452967e-01   6.2326287715009654e-01   6.2713987420707951e-01   6.1953432736746705e-01   6.2342296315203394e-01   6.1571202524611535e-01   6.1961577754423502e-01   6.1179639699896349e-01   6.1571479903106063e-01   6.0778798203506923e-01   6.1172045194995084e-01   6.0368735804049467e-01   6.0763331839431012e-01   5.9949515053079427e-01   6.0345400136800287e-01   5.9521261560330252e-01   5.9918312143916530e-01   5.9083920789984556e-01   5.9482202290480046e-01   5.8637677528715271e-01   5.9037067292569589e-01   5.8182498542734906e-01   5.8582932121112441e-01   5.7718459083887208e-01   5.8119877368174688e-01   5.7245723691404671e-01   5.7648067711056827e-01   5.6764286642367456e-01   5.7167522372577440e-01   5.6274276939636825e-01   5.6678316076320456e-01   5.5775736336240955e-01   5.6180496729725671e-01   5.5268750849805715e-01   5.5674192510268705e-01   5.4753409963507393e-01   5.5159466871042151e-01   5.4229787411111763e-01   5.4636403145207435e-01   5.3697955508857820e-01   5.4105066870096608e-01   5.3158017643125643e-01   5.3565565996047615e-01   5.2610003900466207e-01   5.3017927424746114e-01   5.2054015626868955e-01   5.2462258392774275e-01   5.1490136117839835e-01   5.1898633743097133e-01   5.0918460968894053e-01   5.1327148252975807e-01   5.0339043987970533e-01   5.0747916309078811e-01   4.9752036515251485e-01   5.0160916814645229e-01   4.9157491019900795e-01   4.9566377067787987e-01   4.8555497674761000e-01   4.8964325010434145e-01   4.7946149679861461e-01   4.8354855320234175e-01   4.7329540026936495e-01   4.7738062338718151e-01   4.6705753132246586e-01   4.7114030667157081e-01   4.6074876181612279e-01   4.6482837021284223e-01   4.5437047442975192e-01   4.5844629903840012e-01   4.4792342699271304e-01   4.5199486173533399e-01   4.4140860838174789e-01   4.4547502297690572e-01   4.3482742647995520e-01   4.3888820814869606e-01   4.2818008288072623e-01   4.3223458324682640e-01   4.2551561066275817e-01   3.2131922274875668e-01   3.2520322973834914e-01   3.1763708571407284e-01   2.6753140491945376e-01   2.7128885477505471e-01   2.5967971397110218e-01   2.6341676521231899e-01   2.5178937820594893e-01   2.5550560233903952e-01   2.4755646188555877e-01   6.7164062429234328e-01   6.7523952516188301e-01   6.6913344176921852e-01   6.7275558306499339e-01   6.6634108138315573e-01   6.6998576693422784e-01   6.6363401310098757e-01   6.6730015032483092e-01   6.6451417886754094e-01   6.5509795869631293e-01   6.5882804848519116e-01   6.5199487093522890e-01   6.5574466219148575e-01   6.4879466901975857e-01   6.5256357884851313e-01   6.4549784869462168e-01   6.4910117149260627e-01   6.4192615799969077e-01   6.4591033536974340e-01   6.3843771726590115e-01   6.4226049852824163e-01   6.3485327796640156e-01   6.3869332549825075e-01   6.3117303835379190e-01   6.3502987498223518e-01   6.2739744298769595e-01   6.3127051558549419e-01   6.2352254818839703e-01   6.2741136951343301e-01   6.1955746098381415e-01   6.2346145810005893e-01   6.1549843197116794e-01   6.1941703921640012e-01   6.1134605603497061e-01   6.1527869992141648e-01   6.0710092793792658e-01   6.1104702244984910e-01   6.0276435270250672e-01   6.0672267103592503e-01   5.9833576798628796e-01   6.0230696182224319e-01   5.9381707385832450e-01   5.9779990614883627e-01   5.8920788867427132e-01   5.9320174378982793e-01   5.8450898142141106e-01   5.8851376635298447e-01   5.7972203533883548e-01   5.8373615686270497e-01   5.7484728582550804e-01   5.7887065727368692e-01   5.6988542005235776e-01   5.7391518180754741e-01   5.6483725557594366e-01   5.6887505535558325e-01   5.5970333001393457e-01   5.6375078525927114e-01   5.5448502498358720e-01   5.5853926674185683e-01   5.4918309710605040e-01   5.5324326628185572e-01   5.4379751953074440e-01   5.4786381394744021e-01   5.3833014774067822e-01   5.4240115361705954e-01   5.3278098816855646e-01   5.3685637794132446e-01   5.2715110972044343e-01   5.3123027849900539e-01   5.2144135694761473e-01   5.2552370133709170e-01   5.1565258446718065e-01   5.1973748236465422e-01   5.0978599198151653e-01   5.1387253058619797e-01   5.0384133013587895e-01   5.0792940717319179e-01   4.9782091803743050e-01   5.0190967417379773e-01   4.9172504987446686e-01   4.9581385698985053e-01   4.8555469865057749e-01   4.8964292162057566e-01   4.7931074206895069e-01   4.8339776057551648e-01   4.7299409447753904e-01   4.7707930640419854e-01   4.6660561379676674e-01   4.7068833502339114e-01   4.6014651167555870e-01   4.6422611180154727e-01   4.5361791384493161e-01   4.5769391322466801e-01   4.4702091794316301e-01   4.5109225882634935e-01   4.4035599509112927e-01   4.4442245683857179e-01   4.3362445307537467e-01   4.3768527307342386e-01   4.2682753437301929e-01   4.3088185118240263e-01   4.1996565803130159e-01   4.2401342559513311e-01   4.1304072309427953e-01   4.1708070846048761e-01   4.0605350690420389e-01   4.1008527426702157e-01   4.0302800204667488e-01   3.3300260288084604e-01   3.3691735695329478e-01   3.2540499350580715e-01   3.2930462924298454e-01   3.1775892153428764e-01   3.2164281589274812e-01   3.1393317495047157e-01   2.8671376324733439e-01   2.9052886654240712e-01   2.7884325471374494e-01   2.8263959519032517e-01   2.7093150700687674e-01   2.7470858311544033e-01   2.6297957555330365e-01   2.6673686750672160e-01   2.5498863900514646e-01   2.5872556418959713e-01   2.4695999309309086e-01   2.5067599137350621e-01   2.3889489142367737e-01   2.4258938250099690e-01   2.3446702284750168e-01   6.7976875746074694e-01   6.7723043751951961e-01   6.8082991245688540e-01   6.7459028149744027e-01   6.7821300598119960e-01   6.7184869693165883e-01   6.7549513624716617e-01   6.6900606227590942e-01   6.7267368190348120e-01   6.6606298466807146e-01   6.6975216468067322e-01   6.6320515607439234e-01   6.6691536761067782e-01   6.6006336564288204e-01   6.6360728166277949e-01   6.5682331386505166e-01   6.6057330918276336e-01   6.5348548464103795e-01   6.5725454481733547e-01   6.4987087762870477e-01   6.5383782699033766e-01   6.4633915573596989e-01   6.5014444712176955e-01   6.4271025882075727e-01   6.4653330977359880e-01   6.3898445298767426e-01   6.4282478968217760e-01   6.3516211200428918e-01   6.3901921296756847e-01   6.3123935202879322e-01   6.3511273675836799e-01   6.2722525332752022e-01   6.3111432613710161e-01   6.2311609474574170e-01   6.2702031194890784e-01   6.1891245453222921e-01   6.2283124231143194e-01   6.1461496645879021e-01   6.1854775484324886e-01   6.1022487081858590e-01   6.1417046862507663e-01   6.0574175793152929e-01   6.0969978319219920e-01   6.0116738368046840e-01   6.0513858873311122e-01   5.9650143040589065e-01   6.0048423814217600e-01   5.9174517265601578e-01   5.9573898170797002e-01   5.8689657584236821e-01   5.9090081884915313e-01   5.8196181978294481e-01   5.8597586747161090e-01   5.7693895873087886e-01   5.8096224004139974e-01   5.7182873920253752e-01   5.7586064440862850e-01   5.6663202685992919e-01   5.7067192314968285e-01   5.6134964825812772e-01   5.6539691938911651e-01   5.5598236465399253e-01   5.6003643368961642e-01   5.5053283952128262e-01   5.5459122402292138e-01   5.4499830428458840e-01   5.4906422812743094e-01   5.3938098148277569e-01   5.4345190180940695e-01   5.3368196718000593e-01   5.3775728022031111e-01   5.2790209319555559e-01   5.3198119005731659e-01   5.2204223938549765e-01   5.2612450559702595e-01   5.1610327672774092e-01   5.2018808737057676e-01   5.1008577684410850e-01   5.1417289239275998e-01   5.0399131579035938e-01   5.0807934111425423e-01   4.9782047647842337e-01   5.0190917881991182e-01   4.9157418450545798e-01   4.9566293191158656e-01   4.8525335980269024e-01   4.8934156041930865e-01   4.7885877028291585e-01   4.8294593152593868e-01   4.7239171041752492e-01   4.7647704334534058e-01   4.6585295820323058e-01   4.6993570318721328e-01   4.5924380323180997e-01   4.6332362032196023e-01   4.5256546127542435e-01   4.5664136078379625e-01   4.4581824980394252e-01   4.4988977125797847e-01   4.3900355539460495e-01   4.4307007008073607e-01   4.3212241372942634e-01   4.3618326821674752e-01   4.2517597634042381e-01   4.2923053409894529e-01   4.1816541834356369e-01   4.2221302277667611e-01   4.1109154366280237e-01   4.1513169333575389e-01   4.0395583652186168e-01   4.0798762817335099e-01   3.9675928819019307e-01   4.0078219493324990e-01   3.8950303329257574e-01   3.9351642400764758e-01   3.8218814238897209e-01   3.8619140276958941e-01   3.7481582243313061e-01   3.7880829784918452e-01   3.6738723319140631e-01   3.7136830063265031e-01   3.5990359760868940e-01   3.6387261277300698e-01   3.5236606419034139e-01   3.5632242144380366e-01   3.4477579354314863e-01   3.4871887512030370e-01   3.3713402452670627e-01   3.4106319990749501e-01   3.2944197417938564e-01   3.3335662359534318e-01   3.2170083181056880e-01   3.2560035435295637e-01   3.1391184108557996e-01   3.1779560727514455e-01   3.0607620044554712e-01   3.0994361522534675e-01   2.9819503044623330e-01   3.0204551231285393e-01   2.9026953853047427e-01   2.9410252015282839e-01   2.8230103499974318e-01   2.8611588233238772e-01   2.7429085068611442e-01   2.7808696201130551e-01   2.6624000708444823e-01   2.7001691418016910e-01   2.5814963960292370e-01   2.6190675498956695e-01   2.5002113646619584e-01   2.5375785953576008e-01   2.4185573454348069e-01   2.4557149025638614e-01   2.3365468201317213e-01   2.3734890265882017e-01   2.2909126195222898e-01   6.8541270567821955e-01   6.8274032555098962e-01   6.8634054943480116e-01   6.7996527027524234e-01   6.8358989044636576e-01   6.7708797700622825e-01   6.8073411260623651e-01   6.7410901587711025e-01   6.7777720777673112e-01   6.7121448241205039e-01   6.7471873239019187e-01   6.6803430222759619e-01   6.7174480328781427e-01   6.6475467458124404e-01   6.6848526352910487e-01   6.6137612047860639e-01   6.6512625471649167e-01   6.5771887847327204e-01   6.6148755989161290e-01   6.5414417467592645e-01   6.5793150042662485e-01   6.5047119443123980e-01   6.5427676817017377e-01   6.4670016947627873e-01   6.5052352336745756e-01   6.4283150720756865e-01   6.4667212713284594e-01   6.3886134498598901e-01   6.4272301741692262e-01   6.3479867937683565e-01   6.3867231374171241e-01   6.3063985959495761e-01   6.3452915439063728e-01   6.2638547403403255e-01   6.3028987430122074e-01   6.2203614715790756e-01   6.2595507859361799e-01   6.1759368474228593e-01   6.2152652552454579e-01   6.1305657976229966e-01   6.1700280393630935e-01   6.0842662981534001e-01   6.1238563292266723e-01   6.0370455495579911e-01   6.0767574175729844e-01   5.9888844336707647e-01   6.0287388335203773e-01   5.9398429181436296e-01   5.9797808011296172e-01   5.8899027331936049e-01   5.9299445476279100e-01   5.8390712250336363e-01   5.8792110818374055e-01   5.7873562275335977e-01   5.8275881961335452e-01   5.7347659235258042e-01   5.7750834129308704e-01   5.6813087107227023e-01   5.7217060256669749e-01   5.6269925934373832e-01   5.6674642559997757e-01   5.5718252866995088e-01   5.6123649492970307e-01   5.5158366165805983e-01   5.5564164766230650e-01   5.4589903968672171e-01   5.4996487561734975e-01   5.4013174112036921e-01   5.4420258014635758e-01   5.3428262575435093e-01   5.3835786362739591e-01   5.2835254844863611e-01   5.3243157155763010e-01   5.2234241319025809e-01   5.2642460783909861e-01   5.1625313738323431e-01   5.2033788649096058e-01   5.1008517975259804e-01   5.1417225129593358e-01   5.0384030125940182e-01   5.0792827656591122e-01   4.9751904764705918e-01   5.0160771433614482e-01   4.9112234280165601e-01   4.9521108229172506e-01   4.8465113673509291e-01   4.8873934705874789e-01   4.7810637970680048e-01   4.8219343821408378e-01   4.7148916223107790e-01   4.7557414182729402e-01   4.6480049341157931e-01   4.6888327222769882e-01   4.5804160446346465e-01   4.6212127921060070e-01   4.5121314991834366e-01   4.5528908329970635e-01   4.4431632633180601e-01   4.4838792177776310e-01   4.3735226973891933e-01   4.4141881631920749e-01   4.3032207243582565e-01   4.3438298251924523e-01   4.2322684459965831e-01   4.2728142811440767e-01   4.1606763174605887e-01   4.2011523790673311e-01   4.0884572516373391e-01   4.1288573027804937e-01   4.0156219035561441e-01   4.0559394681491384e-01   3.9421815972266022e-01   3.9824097356595195e-01   3.8681477918417501e-01   3.9082814528300541e-01   3.7935320045382465e-01   3.8335642128877040e-01   3.7183467717026447e-01   3.7582710355681165e-01   3.6426037727501431e-01   3.6824137285191461e-01   3.5663150618996969e-01   3.6060045259831186e-01   3.4894925730991799e-01   3.5290553524186474e-01   3.4121485643412852e-01   3.4515783447817588e-01   3.3342952590502306e-01   3.3735858704430410e-01   3.2559450225557801e-01   3.2950902434272683e-01   3.1771101018270914e-01   3.2161038262406427e-01   3.0978024832641543e-01   3.1366388078844004e-01   3.0180335743946296e-01   3.0567067868255260e-01   2.9378164490354763e-01   2.9763199925680189e-01   2.8571645695990383e-01   2.8954923806940647e-01   2.7760900539697586e-01   2.8142365312465351e-01   2.6946040122877768e-01   2.7325638497217541e-01   2.6127187596366436e-01   2.6504861150515002e-01   2.5304470222092140e-01   2.5680160328918450e-01   2.4478018471290372e-01   2.4851667363627417e-01   2.3647955518148331e-01   2.4019507960324679e-01   2.2814397385837754e-01   2.3183803901902453e-01   2.2344660882849873e-01   6.9078987157428873e-01   6.8798166281411144e-01   6.9158395844035536e-01   6.8507002161620079e-01   6.8869411978600281e-01   6.8205588579483589e-01   6.8570259347658546e-01   6.7893883136086297e-01   6.8260746934560745e-01   6.7590642126605627e-01   6.7959648075672086e-01   6.7258754826839262e-01   6.7629820459532619e-01   6.6916858197097528e-01   6.7289928631635132e-01   6.6546901826247395e-01   6.6921871934654764e-01   6.6185167306564252e-01   6.6562052574215924e-01   6.5813493992875560e-01   6.6191926165555537e-01   6.5431909729725957e-01   6.5812494010199019e-01   6.5040450106677972e-01   6.5422811738321474e-01   6.4639162680745543e-01   6.5023249062717048e-01   6.4227662334299340e-01   6.4613856121145252e-01   6.3806863257481206e-01   6.4194246732923022e-01   6.3376400769931729e-01   6.3765347136302630e-01   6.2936358636400114e-01   6.3326792978794044e-01   6.2486853137752585e-01   6.2878748718100097e-01   6.2027808694921283e-01   6.2421097385957192e-01   6.1559294098828188e-01   6.1953918546237741e-01   6.1081620594530783e-01   6.1477439404727552e-01   6.0594627078831031e-01   6.0991740682108841e-01   6.0098196829297468e-01   6.0496472970586734e-01   5.9592940048381704e-01   5.9992312590258623e-01   5.9078667543088270e-01   5.9479083208575789e-01   5.8555463065787594e-01   5.8956854644634238e-01   5.8023407595065957e-01   5.8425716916187020e-01   5.7482582099323143e-01   5.7885750091662524e-01   5.6933067630483092e-01   5.7337034062254344e-01   5.6374943976874048e-01   5.6779649942547661e-01   5.5808295497893978e-01   5.6213678100442344e-01   5.5233194682119702e-01   5.5639202919825315e-01   5.4649946973262586e-01   5.5056301469318192e-01   5.4058198032551508e-01   5.4465274731654023e-01   5.3458259365683636e-01   5.3865776442241786e-01   5.2850218544921157e-01   5.3258114798714828e-01   5.2234171454533418e-01   5.2642386101525396e-01   5.1610199464011952e-01   5.2018670853537929e-01   5.0978391731370631e-01   5.1387068323447294e-01   5.0338840951128438e-01   5.0747636003506924e-01   4.9691683284030291e-01   5.0100549305986708e-01   4.9036987072986432e-01   4.9445861669699875e-01   4.8374851125564511e-01   4.8783673311981535e-01   4.7705374408511325e-01   4.8114099269101390e-01   4.7028680881797358e-01   4.7437206057774506e-01   4.6344840059063952e-01   4.6753119199721327e-01   4.5653981254525217e-01   4.6061945754435774e-01   4.4956199552005133e-01   4.5363795260006096e-01   4.4251609767789862e-01   4.4658768348198008e-01   4.3540321243637836e-01   4.3946977736767112e-01   4.2822448080958503e-01   4.3228510663463665e-01   4.2098094768348160e-01   4.2503538067385022e-01   4.1367395032805721e-01   4.1772156040454472e-01   4.0630453755918755e-01   4.1034453583973074e-01   3.9887387302696636e-01   4.0290562276249442e-01   3.9138312535605480e-01   3.9540598148179917e-01   3.8383349814942419e-01   3.8784683940159631e-01   3.7622616752432292e-01   3.8022933838864403e-01   3.6856238698164495e-01   3.7255475518756309e-01   3.6084335183926164e-01   3.6482428475048584e-01   3.5307029130090944e-01   3.5703916146491210e-01   3.4524442826038132e-01   3.4920060712174927e-01   3.3736701517049456e-01   3.4130987528478368e-01   3.2943928269119577e-01   3.3336821234985842e-01   3.2146248501493940e-01   3.2537686299254659e-01   3.1343780828437112e-01   3.1733704007762509e-01   3.0536647257041238e-01   3.0924996972517776e-01   2.97249741722625