<?xml version="1.0"?>
<VTKFile type="UnstructuredGrid"  version="0.1"  >
<UnstructuredGrid>
<Piece  NumberOfPoints="8452" NumberOfCells="16502">
<Points>
<DataArray  type="Float64"  NumberOfComponents="3"  format="ascii">0 0 0  0.00390625 0 0  0.00390625 0.00390625 0  0 0.00390625 0  0.0078125 0 0  0.0078125 0.00390625 0  0.01171875 0 0  0.01171875 0.00390625 0  0.015625 0 0  0.015625 0.00390625 0  0.01953125 0 0  0.01953125 0.00390625 0  0.0234375 0 0  0.0234375 0.00390625 0  0.02734375 0 0  0.02734375 0.00390625 0  0.03125 0 0  0.03125 0.00390625 0  0.03515625 0 0  0.03515625 0.00390625 0  0.0390625 0 0  0.0390625 0.00390625 0  0.04296875 0 0  0.04296875 0.00390625 0  0.046875 0 0  0.046875 0.00390625 0  0.05078125 0 0  0.05078125 0.00390625 0  0.0546875 0 0  0.0546875 0.00390625 0  0.05859375 0 0  0.05859375 0.00390625 0  0.0625 0 0  0.0625 0.00390625 0  0.06640625 0 0  0.06640625 0.00390625 0  0.0703125 0 0  0.0703125 0.00390625 0  0.07421875 0 0  0.07421875 0.00390625 0  0.078125 0 0  0.078125 0.00390625 0  0.08203125 0 0  0.08203125 0.00390625 0  0.0859375 0 0  0.0859375 0.00390625 0  0.08984375 0 0  0.08984375 0.00390625 0  0.09375 0 0  0.09375 0.00390625 0  0.09765625 0 0  0.09765625 0.00390625 0  0.1015625 0 0  0.1015625 0.00390625 0  0.10546875 0 0  0.10546875 0.00390625 0  0.109375 0 0  0.109375 0.00390625 0  0.11328125 0 0  0.11328125 0.00390625 0  0.1171875 0 0  0.1171875 0.00390625 0  0.12109375 0 0  0.12109375 0.00390625 0  0.125 0 0  0.125 0.00390625 0  0.12890625 0 0  0.12890625 0.00390625 0  0.1328125 0 0  0.1328125 0.00390625 0  0.13671875 0 0  0.13671875 0.00390625 0  0.140625 0 0  0.140625 0.00390625 0  0.14453125 0 0  0.14453125 0.00390625 0  0.1484375 0 0  0.1484375 0.00390625 0  0.15234375 0 0  0.15234375 0.00390625 0  0.15625 0 0  0.15625 0.00390625 0  0.16015625 0 0  0.16015625 0.00390625 0  0.1640625 0.00390625 0  0.00390625 0.0078125 0  0 0.0078125 0  0.0078125 0.0078125 0  0.01171875 0.0078125 0  0.015625 0.0078125 0  0.01953125 0.0078125 0  0.0234375 0.0078125 0  0.02734375 0.0078125 0  0.03125 0.0078125 0  0.03515625 0.0078125 0  0.0390625 0.0078125 0  0.04296875 0.0078125 0  0.046875 0.0078125 0  0.05078125 0.0078125 0  0.0546875 0.0078125 0  0.05859375 0.0078125 0  0.0625 0.0078125 0  0.06640625 0.0078125 0  0.0703125 0.0078125 0  0.07421875 0.0078125 0  0.078125 0.0078125 0  0.08203125 0.0078125 0  0.0859375 0.0078125 0  0.08984375 0.0078125 0  0.09375 0.0078125 0  0.09765625 0.0078125 0  0.1015625 0.0078125 0  0.10546875 0.0078125 0  0.109375 0.0078125 0  0.11328125 0.0078125 0  0.1171875 0.0078125 0  0.12109375 0.0078125 0  0.125 0.0078125 0  0.12890625 0.0078125 0  0.1328125 0.0078125 0  0.13671875 0.0078125 0  0.140625 0.0078125 0  0.14453125 0.0078125 0  0.1484375 0.0078125 0  0.15234375 0.0078125 0  0.15625 0.0078125 0  0.16015625 0.0078125 0  0.1640625 0.0078125 0  0.00390625 0.01171875 0  0 0.01171875 0  0.0078125 0.01171875 0  0.01171875 0.01171875 0  0.015625 0.01171875 0  0.01953125 0.01171875 0  0.0234375 0.01171875 0  0.02734375 0.01171875 0  0.03125 0.01171875 0  0.03515625 0.01171875 0  0.0390625 0.01171875 0  0.04296875 0.01171875 0  0.046875 0.01171875 0  0.05078125 0.01171875 0  0.0546875 0.01171875 0  0.05859375 0.01171875 0  0.0625 0.01171875 0  0.06640625 0.01171875 0  0.0703125 0.01171875 0  0.07421875 0.01171875 0  0.078125 0.01171875 0  0.08203125 0.01171875 0  0.0859375 0.01171875 0  0.08984375 0.01171875 0  0.09375 0.01171875 0  0.09765625 0.01171875 0  0.1015625 0.01171875 0  0.10546875 0.01171875 0  0.109375 0.01171875 0  0.11328125 0.01171875 0  0.1171875 0.01171875 0  0.12109375 0.01171875 0  0.125 0.01171875 0  0.12890625 0.01171875 0  0.1328125 0.01171875 0  0.13671875 0.01171875 0  0.140625 0.01171875 0  0.14453125 0.01171875 0  0.1484375 0.01171875 0  0.15234375 0.01171875 0  0.15625 0.01171875 0  0.16015625 0.01171875 0  0.1640625 0.01171875 0  0.16796875 0.01171875 0  0.00390625 0.015625 0  0 0.015625 0  0.0078125 0.015625 0  0.01171875 0.015625 0  0.015625 0.015625 0  0.01953125 0.015625 0  0.0234375 0.015625 0  0.02734375 0.015625 0  0.03125 0.015625 0  0.03515625 0.015625 0  0.0390625 0.015625 0  0.04296875 0.015625 0  0.046875 0.015625 0  0.05078125 0.015625 0  0.0546875 0.015625 0  0.05859375 0.015625 0  0.0625 0.015625 0  0.06640625 0.015625 0  0.0703125 0.015625 0  0.07421875 0.015625 0  0.078125 0.015625 0  0.08203125 0.015625 0  0.0859375 0.015625 0  0.08984375 0.015625 0  0.09375 0.015625 0  0.09765625 0.015625 0  0.1015625 0.015625 0  0.10546875 0.015625 0  0.109375 0.015625 0  0.11328125 0.015625 0  0.1171875 0.015625 0  0.12109375 0.015625 0  0.125 0.015625 0  0.12890625 0.015625 0  0.1328125 0.015625 0  0.13671875 0.015625 0  0.140625 0.015625 0  0.14453125 0.015625 0  0.1484375 0.015625 0  0.15234375 0.015625 0  0.15625 0.015625 0  0.16015625 0.015625 0  0.1640625 0.015625 0  0.16796875 0.015625 0  0.171875 0.015625 0  0.00390625 0.01953125 0  0 0.01953125 0  0.0078125 0.01953125 0  0.01171875 0.01953125 0  0.015625 0.01953125 0  0.01953125 0.01953125 0  0.0234375 0.01953125 0  0.02734375 0.01953125 0  0.03125 0.01953125 0  0.03515625 0.01953125 0  0.0390625 0.01953125 0  0.04296875 0.01953125 0  0.046875 0.01953125 0  0.05078125 0.01953125 0  0.0546875 0.01953125 0  0.05859375 0.01953125 0  0.0625 0.01953125 0  0.06640625 0.01953125 0  0.0703125 0.01953125 0  0.07421875 0.01953125 0  0.078125 0.01953125 0  0.08203125 0.01953125 0  0.0859375 0.01953125 0  0.08984375 0.01953125 0  0.09375 0.01953125 0  0.09765625 0.01953125 0  0.1015625 0.01953125 0  0.10546875 0.01953125 0  0.109375 0.01953125 0  0.11328125 0.01953125 0  0.1171875 0.01953125 0  0.12109375 0.01953125 0  0.125 0.01953125 0  0.12890625 0.01953125 0  0.1328125 0.01953125 0  0.13671875 0.01953125 0  0.140625 0.01953125 0  0.14453125 0.01953125 0  0.1484375 0.01953125 0  0.15234375 0.01953125 0  0.15625 0.01953125 0  0.16015625 0.01953125 0  0.1640625 0.01953125 0  0.16796875 0.01953125 0  0.171875 0.01953125 0  0.00390625 0.0234375 0  0 0.0234375 0  0.0078125 0.0234375 0  0.01171875 0.0234375 0  0.015625 0.0234375 0  0.01953125 0.0234375 0  0.0234375 0.0234375 0  0.02734375 0.0234375 0  0.03125 0.0234375 0  0.03515625 0.0234375 0  0.0390625 0.0234375 0  0.04296875 0.0234375 0  0.046875 0.0234375 0  0.05078125 0.0234375 0  0.0546875 0.0234375 0  0.05859375 0.0234375 0  0.0625 0.0234375 0  0.06640625 0.0234375 0  0.0703125 0.0234375 0  0.07421875 0.0234375 0  0.078125 0.0234375 0  0.08203125 0.0234375 0  0.0859375 0.0234375 0  0.08984375 0.0234375 0  0.09375 0.0234375 0  0.09765625 0.0234375 0  0.1015625 0.0234375 0  0.10546875 0.0234375 0  0.109375 0.0234375 0  0.11328125 0.0234375 0  0.1171875 0.0234375 0  0.12109375 0.0234375 0  0.125 0.0234375 0  0.12890625 0.0234375 0  0.1328125 0.0234375 0  0.13671875 0.0234375 0  0.140625 0.0234375 0  0.14453125 0.0234375 0  0.1484375 0.0234375 0  0.15234375 0.0234375 0  0.15625 0.0234375 0  0.16015625 0.0234375 0  0.1640625 0.0234375 0  0.16796875 0.0234375 0  0.171875 0.0234375 0  0.17578125 0.0234375 0  0.00390625 0.02734375 0  0 0.02734375 0  0.0078125 0.02734375 0  0.01171875 0.02734375 0  0.015625 0.02734375 0  0.01953125 0.02734375 0  0.0234375 0.02734375 0  0.02734375 0.02734375 0  0.03125 0.02734375 0  0.03515625 0.02734375 0  0.0390625 0.02734375 0  0.04296875 0.02734375 0  0.046875 0.02734375 0  0.05078125 0.02734375 0  0.0546875 0.02734375 0  0.05859375 0.02734375 0  0.0625 0.02734375 0  0.06640625 0.02734375 0  0.0703125 0.02734375 0  0.07421875 0.02734375 0  0.078125 0.02734375 0  0.08203125 0.02734375 0  0.0859375 0.02734375 0  0.08984375 0.02734375 0  0.09375 0.02734375 0  0.09765625 0.02734375 0  0.1015625 0.02734375 0  0.10546875 0.02734375 0  0.109375 0.02734375 0  0.11328125 0.02734375 0  0.1171875 0.02734375 0  0.12109375 0.02734375 0  0.125 0.02734375 0  0.12890625 0.02734375 0  0.1328125 0.02734375 0  0.13671875 0.02734375 0  0.140625 0.02734375 0  0.14453125 0.02734375 0  0.1484375 0.02734375 0  0.15234375 0.02734375 0  0.15625 0.02734375 0  0.16015625 0.02734375 0  0.1640625 0.02734375 0  0.16796875 0.02734375 0  0.171875 0.02734375 0  0.17578125 0.02734375 0  0.00390625 0.03125 0  0 0.03125 0  0.0078125 0.03125 0  0.01171875 0.03125 0  0.015625 0.03125 0  0.01953125 0.03125 0  0.0234375 0.03125 0  0.02734375 0.03125 0  0.03125 0.03125 0  0.03515625 0.03125 0  0.0390625 0.03125 0  0.04296875 0.03125 0  0.046875 0.03125 0  0.05078125 0.03125 0  0.0546875 0.03125 0  0.05859375 0.03125 0  0.0625 0.03125 0  0.06640625 0.03125 0  0.0703125 0.03125 0  0.07421875 0.03125 0  0.078125 0.03125 0  0.08203125 0.03125 0  0.0859375 0.03125 0  0.08984375 0.03125 0  0.09375 0.03125 0  0.09765625 0.03125 0  0.1015625 0.03125 0  0.10546875 0.03125 0  0.109375 0.03125 0  0.11328125 0.03125 0  0.1171875 0.03125 0  0.12109375 0.03125 0  0.125 0.03125 0  0.12890625 0.03125 0  0.1328125 0.03125 0  0.13671875 0.03125 0  0.140625 0.03125 0  0.14453125 0.03125 0  0.1484375 0.03125 0  0.15234375 0.03125 0  0.15625 0.03125 0  0.16015625 0.03125 0  0.1640625 0.03125 0  0.16796875 0.03125 0  0.171875 0.03125 0  0.17578125 0.03125 0  0.00390625 0.03515625 0  0 0.03515625 0  0.0078125 0.03515625 0  0.01171875 0.03515625 0  0.015625 0.03515625 0  0.01953125 0.03515625 0  0.0234375 0.03515625 0  0.02734375 0.03515625 0  0.03125 0.03515625 0  0.03515625 0.03515625 0  0.0390625 0.03515625 0  0.04296875 0.03515625 0  0.046875 0.03515625 0  0.05078125 0.03515625 0  0.0546875 0.03515625 0  0.05859375 0.03515625 0  0.0625 0.03515625 0  0.06640625 0.03515625 0  0.0703125 0.03515625 0  0.07421875 0.03515625 0  0.078125 0.03515625 0  0.08203125 0.03515625 0  0.0859375 0.03515625 0  0.08984375 0.03515625 0  0.09375 0.03515625 0  0.09765625 0.03515625 0  0.1015625 0.03515625 0  0.10546875 0.03515625 0  0.109375 0.03515625 0  0.11328125 0.03515625 0  0.1171875 0.03515625 0  0.12109375 0.03515625 0  0.125 0.03515625 0  0.12890625 0.03515625 0  0.1328125 0.03515625 0  0.13671875 0.03515625 0  0.140625 0.03515625 0  0.14453125 0.03515625 0  0.148437
[...]
<CellData  Scalars="f_11"> 
<DataArray  type="Float64"  Name="f_11"  format="ascii">4.3719322753573846e-05   4.3719322750346352e-05   9.0327227162258409e-05   1.3576128572234376e-04   1.3776821901679610e-04   2.2969661130884362e-04   1.8583249928489468e-04   3.2519540163127605e-04   2.3433781836066807e-04   4.2175826844497615e-04   2.8316884238135649e-04   5.1908916723472263e-04   3.3223968877415909e-04   6.1698455764200375e-04   3.8149047168239552e-04   7.1529958835022452e-04   4.3086683431801362e-04   8.1392007400417571e-04   4.8033055686886255e-04   9.1275252851730660e-04   5.2984224429536105e-04   1.0117200774205598e-03   5.7937614135604280e-04   1.1107582910501966e-03   6.2890377772650786e-04   1.2098127162853988e-03   6.7839979333106848e-04   1.3088284662389120e-03   7.2784583590753554e-04   1.4077632835042075e-03   7.7722529891808938e-04   1.5065814697598056e-03   8.2651943204573464e-04   1.6052457699732453e-03   8.7571260440800569e-04   1.7037244224861403e-03   9.2479089320313416e-04   1.8019883486199441e-03   9.7374377443854140e-04   1.9000118321439658e-03   1.0225569232235354e-03   1.9977701587568114e-03   1.0712178003803800e-03   2.0952366880385188e-03   1.1197177723348494e-03   2.1923899229528833e-03   1.1680472566421240e-03   2.2892110679774958e-03   1.2161972870307839e-03   2.3856821195721491e-03   1.2641561212448399e-03   2.4817823666402720e-03   1.3119188446803942e-03   2.5774948407589044e-03   1.3594664463932461e-03   2.6727964783897018e-03   1.4068011055336062e-03   2.7676696485958189e-03   1.4539258978463630e-03   2.8621211866538335e-03   1.5008203236794775e-03   2.9561323087313883e-03   1.5474808336009116e-03   3.0496776264429645e-03   1.5938943133062423e-03   3.1427418124208477e-03   1.6400846243608280e-03   3.2353356128378371e-03   1.6860169588202756e-03   3.3274483093193906e-03   1.7316762912884386e-03   3.4190298383715311e-03   1.7770642164134591e-03   3.5100665392348638e-03   1.8221651725051115e-03   3.6005452415132609e-03   1.8669799922450124e-03   3.6904506466980598e-03   1.9115088255456567e-03   3.7797831688461832e-03   1.9557347221268715e-03   3.8685265775425829e-03   3.9566782284159848e-03   1.3576143618855742e-04   9.0327377613321448e-05   3.2130657517050144e-04   3.2130672563937334e-04   5.1039527255714718e-04   5.5657116315276740e-04   7.0215668384736741e-04   7.9542829636654636e-04   8.9580290025951246e-04   1.0368384655284224e-03   1.0908306721206273e-03   1.2801256698056253e-03   1.2868885291298451e-03   1.5248175336409567e-03   1.4837076235855529e-03   1.7705554205500805e-03   1.6810797225162435e-03   2.0170623832550839e-03   1.8788268234309336e-03   2.2641056401917865e-03   2.0768057243189860e-03   2.5114939291122872e-03   2.2748927891323325e-03   2.7590658200709905e-03   2.4729811790894620e-03   3.0066824390030675e-03   2.6709706827342671e-03   3.2542172956647269e-03   2.8687762383856992e-03   3.5015572105906905e-03   3.0663275587624631e-03   3.7486072575983460e-03   3.2635547130194244e-03   3.9952822060203971e-03   3.4603949257095163e-03   4.2414990400650157e-03   3.6567896299428537e-03   4.4871861899638335e-03   3.8526887994174315e-03   4.7322712733616733e-03   4.0480429084106852e-03   4.9766912108162847e-03   4.2428030616845722e-03   5.2203939325080537e-03   4.4369253744105637e-03   5.4633180150697319e-03   4.6303724030884175e-03   5.7054129012537712e-03   4.8231092812675508e-03   5.9466340504601830e-03   5.0150949784993461e-03   6.1869353143103375e-03   5.2062938021596120e-03   6.4262656196865560e-03   5.3966621366890255e-03   6.6645811606086819e-03   5.5861858248727348e-03   6.9018460395914409e-03   5.7748409373305793e-03   7.1380346019495871e-03   5.9626149739369083e-03   7.3731273983589423e-03   6.1494340610500214e-03   7.6070566650807102e-03   6.3353179903342183e-03   7.8398071398623932e-03   6.5202234320259761e-03   8.0713483149586658e-03   6.7041575445468083e-03   8.3016716330094140e-03   6.8870222516643027e-03   8.5307087575457637e-03   7.0687880674633061e-03   8.7583803647109659e-03   7.2494366079250130e-03   8.9846672386168416e-03   7.4289370030667032e-03   9.2095347275011914e-03   7.6072767375272238e-03   9.4329608126354856e-03   7.7844452684729523e-03   9.6549256453995758e-03   7.9604143064902766e-03   9.8753940217772007e-03   2.2969736377725119e-04   1.3776882097715697e-04   5.5657177817904850e-04   5.1039648960245546e-04   8.8857595284407801e-04   8.8857641739769320e-04   1.2246868797852373e-03   1.2716586655590319e-03   1.5638426222167709e-03   1.6584189718056338e-03   1.9052917684131052e-03   2.0479731643399447e-03   2.2484720965236025e-03   2.4396518300897102e-03   2.5929472520403495e-03   2.8329335385761660e-03   2.9383610794278181e-03   3.2273965951872229e-03   3.2844184840644199e-03   3.6226895727314180e-03   3.6308694846581223e-03   4.0185124038308378e-03   3.9775040410397929e-03   4.4146154355000390e-03   4.3241332993967652e-03   4.8107774765771298e-03   4.6705920562909705e-03   5.2068053484457333e-03   5.0167301016044571e-03   5.6025186567196109e-03   5.3624200968024061e-03   5.9977653646899696e-03   5.7075422084945605e-03   6.3924003852811424e-03   6.0519879470559970e-03   6.7863048531211180e-03   6.3956588693309937e-03   7.1793607510780089e-03   6.7384584292740886e-03   7.5714540603457727e-03   7.0803043839358848e-03   7.9624878298744442e-03   7.4211113318518353e-03   8.3523659652137670e-03   7.7608061211425130e-03   8.7410024186296790e-03   8.0993172733765731e-03   9.1283115253434598e-03   8.4365739060164712e-03   9.5142091248446147e-03   8.7725297105251780e-03   9.8986434899238397e-03   9.1071069362956992e-03   1.0281530644758702e-02   9.4402487299815700e-03   1.0662802655225609e-02   9.7719092084789082e-03   1.1042392683439853e-02   1.0102064393421926e-02   1.1420278494067264e-02   1.0430637914687117e-02   1.1796381082826844e-02   1.0757581729741807e-02   1.2170648475358432e-02   1.1082838952444300e-02   1.2542989536451792e-02   1.1406420314201889e-02   1.2913416358534576e-02   1.1728233239576712e-02   1.3281851560955151e-02   1.2048225028678633e-02   1.3648229922726679e-02   1.2366306248071094e-02   1.4012458891895481e-02   1.2682431735605029e-02   1.4374477708862399e-02   1.2996567097916210e-02   1.4734234107456843e-02   1.3308668709423632e-02   1.5091684386147122e-02   1.3618709920307599e-02   1.5446785030268020e-02   1.3926664846836573e-02   1.5799516399299020e-02   1.6149828403010106e-02   3.2519678300076463e-04   1.8583327856531114e-04   7.9543061968656613e-04   7.0215932201506126e-04   1.2716599262514662e-03   1.2246893972335429e-03   1.7529371807726572e-03   1.7529379769084189e-03   2.2381161461676488e-03   2.2856625368486631e-03   2.7263141002983994e-03   2.8218811155916465e-03   3.2168274964896309e-03   3.3608099310001751e-03   3.7090876474577014e-03   3.9018029978796854e-03   4.2026219696486731e-03   4.4443261371731107e-03   4.6970278089735126e-03   4.9879240085152210e-03   5.1919620835496529e-03   5.5322085613477333e-03   5.6871323768676032e-03   6.0768384450794535e-03   6.1822792526374671e-03   6.6215252677457427e-03   6.6771687744169609e-03   7.1660044535142471e-03   7.1715959699748142e-03   7.7100423786221244e-03   7.6653730176071341e-03   8.2534241623342820e-03   8.1583311501420720e-03   8.7959656951900212e-03   8.6503170355322016e-03   9.3374891172938075e-03   9.1411906479774499e-03   9.8778370044847966e-03   9.6308198894011730e-03   1.0416862130585795e-02   1.0119080883101454e-02   1.0954425136631894e-02   1.0605868603394811e-02   1.1490397680207494e-02   1.1091059314333481e-02   1.2024658854608232e-02   1.1574564027995917e-02   1.2557098376462425e-02   1.2056278478644995e-02   1.3087626557219647e-02   1.2536121874769905e-02   1.3616107702573939e-02   1.3014004550773577e-02   1.4142467744160449e-02   1.3489845304909449e-02   1.4666608955109546e-02   1.3963578635196105e-02   1.5188457519839880e-02   1.4435139673686993e-02   1.5707936240296101e-02   1.4904454882072957e-02   1.6224979304235939e-02   1.5371428397638347e-02   1.6739471541748659e-02   1.5835996473393569e-02   1.7251348335676316e-02   1.6298116864462663e-02   1.7760525624858255e-02   1.6757730808964592e-02   1.8266976159975159e-02   1.7214721865740707e-02   1.8770580447221370e-02   1.7669008794570205e-02   1.9271247672696518e-02   1.8120526326444751e-02   1.9768895159692570e-02   1.8569199331485136e-02   2.0263441007201871e-02   1.9014976350271842e-02   2.0754802225312067e-02   1.9457809060890251e-02   2.1242958214075076e-02   1.9897643727288240e-02   2.1727830200334541e-02   2.0334462613885822e-02   2.2209395516383502e-02   2.2687607191519923e-02   4.2176030771322028e-04   2.3433901223286351e-04   1.0368421176216150e-03   8.9580655553240130e-04   1.6584229538258565e-03   1.5638474240823167e-03   2.2856641292870873e-03   2.2381196676800924e-03   2.9174195790446474e-03   2.9174203753557925e-03   3.5527398022556964e-03   3.6007337541789637e-03   4.1908363684330435e-03   4.2871982291523315e-03   4.8310428579991264e-03   4.9760922019826430e-03   5.4727932334317792e-03   5.6667927780672932e-03   6.1155972050520027e-03   6.3587602124967526e-03   6.7590341562644655e-03   7.0515262940859585e-03   7.4027308392031624e-03   7.7446827824259384e-03   8.0463638401879894e-03   8.4378646169356690e-03   8.6896391561045797e-03   9.1307538998371719e-03   9.3322941452889906e-03   9.8230567078833198e-03   9.9740907317417277e-03   1.0514511738206840e-02   1.0614811382880935e-02   1.1204878461793929e-02   1.1254256768646760e-02   1.1893937347141118e-02   1.1892245531560279e-02   1.2581487993268277e-02   1.2528613889054758e-02   1.3267347733558470e-02   1.3163200089644772e-02   1.3951343295883933e-02   1.3795854058632524e-02   1.4633308657840722e-02   1.4426443648283346e-02   1.5313094408288914e-02   1.5054827727343111e-02   1.5990557683672683e-02   1.5680896856911031e-02   1.6665565613714354e-02   1.6304527464744430e-02   1.7337990765089430e-02   1.6925614376966595e-02   1.8007713174952075e-02   1.7544057553545885e-02   1.8674625136111300e-02   1.8159760271389505e-02   1.9338619891790886e-02   1.8772637459996022e-02   1.9999601818394139e-02   1.9382575424960118e-02   2.0657454637620504e-02   1.9989473520862930e-02   2.1312070802432449e-02   2.0593241730998829e-02   2.1963341764407777e-02   2.1193801222057426e-02   2.2611183605162916e-02   2.1791072150082927e-02   2.3255506712074939e-02   2.2384956860255423e-02   2.3896215741143933e-02   2.2975344167925352e-02   2.4533207253986670e-02   2.3562132701769781e-02   2.5166362029907411e-02   2.4145242709098100e-02   2.5795586634264473e-02   2.4724583291215029e-02   2.6420788217814028e-02   2.5300086770538969e-02   2.7041874560582591e-02   2.5871701620572108e-02   2.7658788386041876e-02   2.6439361877532781e-02   2.8271460968983003e-02   2.7003004988075782e-02   2.8879823446157610e-02   5.1909175593098096e-04   2.8317017105613097e-04   1.2801306295160059e-03   1.0908352823283606e-03   2.0479781584351871e-03   1.9052968547652518e-03   2.8218850997394603e-03   2.7263187364547142e-03   3.6007349829758686e-03   3.5527422896667903e-03   4.3835442519550441e-03   4.3835446844913296e-03   5.1694724367904194e-03   5.2178263487849506e-03   5.9577997813531495e-03   6.0548183862875766e-03   6.7478515141535791e-03   6.8937968663554316e-03   7.5391118231922013e-03   7.7341975173612545e-03   8.3310588218183500e-03   8.5754665201646235e-03   9.1232679594813303e-03   9.4171357324488655e-03   9.9153471602991070e-03   1.0258780477040109e-02   1.0706950173880007e-02   1.1100021505956787e-02   1.1497760130293732e-02   1.1940526729398849e-02   1.2287491913211820e-02   1.2779964834119474e-02   1.3075871494787474e-02   1.3618060210917885e-02   1.3862678365948299e-02   1.4454551378547679e-02   1.4647680888978715e-02   1.5289196836333710e-02   1.5430677420345911e-02   1.6121769861673740e-02   1.6211474472161879e-02   1.6952076533066896e-02   1.6989891596514199e-02   1.7779916033019826e-02   1.7765756858955702e-02   1.8605101157444369e-02   1.8538915996679655e-02   1.9427463760899311e-02   1.9309213143441459e-02   2.0246841646643636e-02   2.0076518385021627e-02   2.1063084548784396e-02   2.0840690597812260e-02   2.1876047501838306e-02   2.1601610605910558e-02   2.2685592484642202e-02   2.2359163769123617e-02   2.3491602305858554e-02   2.3113222887290601e-02   2.4293932953919760e-02   2.3863658484550479e-02   2.5092468980309219e-02   2.4610352475872291e-02   2.5887067605757288e-02   2.5353181531995599e-02   2.6677601649548920e-02   2.6092052562060156e-02   2.7463957146749405e-02   2.6826868512788111e-02   2.8246038657789897e-02   2.7557513307800135e-02   2.9023732338697546e-02   2.8283866397126097e-02   2.9796908351170156e-02   2.9005807855867559e-02   3.0565443701570206e-02   2.9723224396486267e-02   3.1329212602526441e-02   3.0436016182656109e-02   3.2088107506585667e-02   3.1144073862878242e-02   3.2842012330583530e-02   3.1847328943861414e-02   3.3590822765084967e-02   3.2545719739706894e-02   3.4334492210432506e-02   3.3239124003825588e-02   3.5072912485923577e-02   3.5805987197291493e-02   6.1698649399668831e-04   3.3224172616548424e-04   1.5248222816089286e-03   1.2868932917550879e-03   2.4396558937367367e-03   2.2484761071666810e-03   3.3608129562488326e-03   3.2168298559237152e-03   4.2872003961527752e-03   4.1908384213387093e-03   5.2178268373873436e-03   5.1694734009347307e-03   6.1518286610503332e-03   6.1518287165690019e-03   7.0883894310644823e-03   7.1370456227002801e-03   8.0268534458825761e-03   8.1244268369746048e-03   8.9665907083225620e-03   9.1133015801219599e-03   9.9070499805744578e-03   1.0103103267702166e-02   1.0847759870151397e-02   1.1093259603584383e-02   1.1788234459607312e-02   1.2083316078345051e-02   1.2728090103023488e-02   1.3072839707966692e-02   1.3666966326215909e-02   1.4061436691557898e-02   1.4604533218607519e-02   1.5048753672622896e-02   1.5540482489384409e-02   1.6034464722860953e-02   1.6474531951150135e-02   1.7018264711973655e-02   1.7406424287240992e-02   1.7999876280993751e-02   1.8335920889679506e-02   1.8979042136559918e-02   1.9262796070460393e-02   1.9955523695051582e-02   2.0186835464126151e-02   2.0929091552062139e-02   2.1107844916687074e-02   2.1899535147811566e-02   2.2025633585661682e-02   2.2866650252885218e-02   2.2940028823460096e-02   2.3830252287846364e-02   2.3850860147265545e-02   2.4790163319944936e-02   2.4757977184212659e-02   2.5746215485467426e-02   2.5661227056238949e-02   2.6698245539405710e-02   2.6560472359477328e-02   2.7646104840595844e-02   2.7455564513754211e-02   2.8589643540741790e-02   2.8346352687607768e-02   2.9528707204119892e-02   2.9232646624918080e-02   3.0463129962589333e-02   3.0114398285076123e-02   3.1392787588985560e-02   3.0991434669070513e-02   3.2317517184686645e-02   3.1863650829316033e-02   3.3237186016300525e-02   3.2730917965355766e-02   3.4151667569323280e-02   3.3593089079598681e-02   3.5060880850239097e-02   3.4450035121275070e-02   3.5964639651778638e-02   3.5301627232169834e-02   3.6862814921500668e-02   3.6147722668429659e-02   3.7755255100248748e-02   3.6988210862020088e-02   3.8641830663232256e-02   3.7822969727209908e-02   3.9522419314816308e-02   3.8651915945813783e-02   4.0396898827338761e-02   3.9475007039161639e-02   4.1265234907452805e-02   4.0292076749283159e-02   4.2127305249671648e-02   7.1530115669113522e-04   3.8149163431102029e-04   1.7705597954526860e-03   1.4837117643231583e-03   2.8329351106199220e-03   2.5929491719199780e-03   3.9018028643492885e-03   3.7090867795179496e-03   4.9760921296332708e-03   4.8310412667589208e-03   6.0548186705796864e-03   5.9577991427767034e-03   7.1370454323677040e-03   7.0883890104719233e-03   8.2219964646996577e-03   8.2219962150940420e-03   9.3089241099456772e-03   9.3578526624220129e-03   1.0397186005623013e-02   1.0495235431234413e-02   1.1486141672309850e-02   1.1633513142132105e-02   1.2575262896387253e-02   1.2772110360972080e-02   1.3664054680535524e-02   1.3910467907505396e-02   1.4752072037171618e-02   1.5048173620429537e-02   1.5838905031252501e-02   1.6184759364199445e-02   1.6924181005985972e-02   1.7319828569629370e-02   1.8007557118532892e-02   1.8453015929134498e-02   1.9088710209506688e-02   1.9583980862643593e-02   2.0167346347764230e-02   2.0712406233163120e-02   2.1243191562261999e-02   2.1838000904688560e-02   2.2315991073395602e-02   2.2960540513418511e-02   2.3385499382676204e-02   2.4079674496236467e-02   2.4451491547291589e-02   2.5195205946504620e-02   2.5513750376518058e-02   2.6306907909577175e-02   2.6572075194387191e-02   2.7414563347492229e-02   2.7626274836379368e-02   2.8517970289012651e-02   2.8676168327045299e-02   2.9616936336680916e-02   2.9721578575573979e-02   3.0711274488869456e-02   3.0762348882306702e-02   3.1800812728403779e-02   3.1798307596715786e-02   3.2885379516708904e-02   3.2829274590250916e-02   3.3964786970656920e-02   3.3855088758982951e-02   3.5038868956461321e-02   3.4875587738472262e-02   3.6107456687942387e-02   3.5890651032249705e-02   3.7170390085282536e-02   3.6900110769496168e-02   3.8227530175845084e-02   3.7903831146157259e-02   3.9278715761477741e-02   3.8901661166173336e-02   4.0323795987031050e-02   3.9893448357465021e-02   4.1362537249596244e-02   4.0878973623858478e-02   4.2394934864014473e-02   4.1858228396656857e-02   4.3420762967618688e-02   4.2830975861438053e-02   4.4439843710226891e-02   4.3797108955821784e-02   4.5452048136859893e-02   4.4756482907476837e-02   4.6457245769849428e-02   4.5709042694854200e-02   4.7455307649123347e-02   4.6654692141833147e-02   4.8446202025946808e-02   8.1392291921972542e-04   4.3086946535762105e-04   2.0170646075487937e-03   1.6810826754625136e-03   3.2273949794336849e-03   2.9383599897386710e-03   4.4443224011716182e-03   4.2026171389996647e-03   5.6667882358139758e-03   5.4727872833831128e-03   6.8938012986587850e-03   6.7478464441183411e-03   8.1244255978949274e-03   8.0268508938780864e-03   9.3578301041569844e-03   9.3089226497519491e-03   1.0593284036034583e-02   1.0593283561679743e-02   1.1830023335670034e-02   1.1879158330545736e-02   1.3067394656190383e-02   1.3165855092331664e-02   1.4304871925346373e-02   1.4452816219032031e-02   1.5541887976142024e-02   1.5739445118072851e-02   1.6777949842992881e-02   1.7025220091831883e-02   1.8012609629730905e-02   1.8309671335287592e-02   1.9245454569930751e-02   1.9592352320502510e-02   2.0476102305290341e-02   2.0872862880967142e-02   2.1704198987590170e-02   2.2150836447792335e-02   2.2929411502666034e-02   2.3425900298380757e-02   2.4151434282434502e-02   2.4697750418314589e-02   2.5369979108084331e-02   2.5966074895891724e-02   2.6584775373314991e-02   2.7230589471090111e-02   2.7795566538909570e-02   2.8491021772732945e-02   2.9002167392240489e-02   2.9747117997481424e-02   3.0204237902249690e-02   3.0998634834908279e-02   3.1401616380747920e-02   3.2245339731796351e-02   3.2594095386079755e-02   3.3487080089210364e-02   3.3781478363552241e-02   3.4723531633339064e-02   3.4963575051341275e-02   3.5954545973374510e-02   3.6140205522193311e-02   3.7179938389320807e-02   3.7311164026522174e-02   3.8399505610461009e-02   3.8476271837950132e-02   3.9613047937467089e-02   3.9635349131437028e-02   4.0820382565956485e-02   4.0788231216321851e-02   4.2021331141576579e-02   4.1934753321481243e-02   4.3215720757358501e-02   4.3074759263406058e-02   4.4403324267007618e-02   4.4207988006739037e-02   4.5584084507847754e-02   4.5334431017286382e-02   4.6757764823610395e-02   4.6453847076854508e-02   4.7924197706125694e-02   4.7566063570066021e-02   4.9083202941951024e-02   4.8670916337214459e-02   5.0234614117018898e-02   4.9768237976285726e-02   5.1378247839453342e-02   5.0857914374217703e-02   5.2513976971795454e-02   5.1939798794215342e-02   5.3641652269003914e-02   5.3013801190159963e-02   5.4761145479001801e-02   5.5872330332007683e-02   9.1275476735209061e-04   4.8033123620667550e-04   2.2641078048628270e-03   1.8788291478573195e-03   3.6226856330236258e-03   3.2844166498108745e-03   4.9879163388385555e-03   4.6970205057610950e-03   6.3587524474535357e-03   6.11558882296106