<?xml version="1.0"?>
<VTKFile type="UnstructuredGrid"  version="0.1"  >
<UnstructuredGrid>
<Piece  NumberOfPoints="8135" NumberOfCells="15858">
<Points>
<DataArray  type="Float64"  NumberOfComponents="3"  format="ascii">0.16015625 0 0  0.1640625 0 0  0.1640625 0.00390625 0  0.16796875 0 0  0.16796875 0.00390625 0  0.171875 0 0  0.171875 0.00390625 0  0.17578125 0 0  0.17578125 0.00390625 0  0.1796875 0 0  0.1796875 0.00390625 0  0.18359375 0 0  0.18359375 0.00390625 0  0.1875 0 0  0.1875 0.00390625 0  0.19140625 0 0  0.19140625 0.00390625 0  0.1953125 0 0  0.1953125 0.00390625 0  0.19921875 0 0  0.19921875 0.00390625 0  0.203125 0 0  0.203125 0.00390625 0  0.20703125 0 0  0.20703125 0.00390625 0  0.2109375 0 0  0.2109375 0.00390625 0  0.21484375 0 0  0.21484375 0.00390625 0  0.21875 0 0  0.21875 0.00390625 0  0.22265625 0 0  0.22265625 0.00390625 0  0.2265625 0 0  0.2265625 0.00390625 0  0.23046875 0 0  0.23046875 0.00390625 0  0.234375 0 0  0.234375 0.00390625 0  0.23828125 0 0  0.23828125 0.00390625 0  0.2421875 0 0  0.2421875 0.00390625 0  0.24609375 0 0  0.24609375 0.00390625 0  0.25 0 0  0.25 0.00390625 0  0.25390625 0 0  0.25390625 0.00390625 0  0.2578125 0 0  0.2578125 0.00390625 0  0.26171875 0 0  0.26171875 0.00390625 0  0.265625 0 0  0.265625 0.00390625 0  0.26953125 0 0  0.26953125 0.00390625 0  0.2734375 0 0  0.2734375 0.00390625 0  0.27734375 0 0  0.27734375 0.00390625 0  0.28125 0 0  0.28125 0.00390625 0  0.28515625 0 0  0.28515625 0.00390625 0  0.2890625 0 0  0.2890625 0.00390625 0  0.29296875 0 0  0.29296875 0.00390625 0  0.296875 0 0  0.296875 0.00390625 0  0.30078125 0 0  0.30078125 0.00390625 0  0.3046875 0 0  0.3046875 0.00390625 0  0.30859375 0 0  0.30859375 0.00390625 0  0.3125 0 0  0.3125 0.00390625 0  0.31640625 0 0  0.31640625 0.00390625 0  0.3203125 0 0  0.3203125 0.00390625 0  0.32421875 0 0  0.32421875 0.00390625 0  0.328125 0 0  0.328125 0.00390625 0  0.33203125 0 0  0.33203125 0.00390625 0  0.3359375 0 0  0.3359375 0.00390625 0  0.33984375 0 0  0.33984375 0.00390625 0  0.34375 0 0  0.34375 0.00390625 0  0.34765625 0 0  0.34765625 0.00390625 0  0.3515625 0 0  0.3515625 0.00390625 0  0.35546875 0 0  0.35546875 0.00390625 0  0.359375 0 0  0.359375 0.00390625 0  0.36328125 0 0  0.36328125 0.00390625 0  0.3671875 0 0  0.3671875 0.00390625 0  0.37109375 0 0  0.37109375 0.00390625 0  0.375 0 0  0.375 0.00390625 0  0.37890625 0 0  0.37890625 0.00390625 0  0.3828125 0 0  0.3828125 0.00390625 0  0.38671875 0 0  0.38671875 0.00390625 0  0.390625 0 0  0.390625 0.00390625 0  0.39453125 0 0  0.39453125 0.00390625 0  0.3984375 0 0  0.3984375 0.00390625 0  0.40234375 0 0  0.40234375 0.00390625 0  0.40625 0 0  0.40625 0.00390625 0  0.41015625 0 0  0.41015625 0.00390625 0  0.4140625 0 0  0.4140625 0.00390625 0  0.41796875 0 0  0.41796875 0.00390625 0  0.421875 0 0  0.421875 0.00390625 0  0.42578125 0 0  0.42578125 0.00390625 0  0.16796875 0.0078125 0  0.1640625 0.0078125 0  0.171875 0.0078125 0  0.17578125 0.0078125 0  0.1796875 0.0078125 0  0.18359375 0.0078125 0  0.1875 0.0078125 0  0.19140625 0.0078125 0  0.1953125 0.0078125 0  0.19921875 0.0078125 0  0.203125 0.0078125 0  0.20703125 0.0078125 0  0.2109375 0.0078125 0  0.21484375 0.0078125 0  0.21875 0.0078125 0  0.22265625 0.0078125 0  0.2265625 0.0078125 0  0.23046875 0.0078125 0  0.234375 0.0078125 0  0.23828125 0.0078125 0  0.2421875 0.0078125 0  0.24609375 0.0078125 0  0.25 0.0078125 0  0.25390625 0.0078125 0  0.2578125 0.0078125 0  0.26171875 0.0078125 0  0.265625 0.0078125 0  0.26953125 0.0078125 0  0.2734375 0.0078125 0  0.27734375 0.0078125 0  0.28125 0.0078125 0  0.28515625 0.0078125 0  0.2890625 0.0078125 0  0.29296875 0.0078125 0  0.296875 0.0078125 0  0.30078125 0.0078125 0  0.3046875 0.0078125 0  0.30859375 0.0078125 0  0.3125 0.0078125 0  0.31640625 0.0078125 0  0.3203125 0.0078125 0  0.32421875 0.0078125 0  0.328125 0.0078125 0  0.33203125 0.0078125 0  0.3359375 0.0078125 0  0.33984375 0.0078125 0  0.34375 0.0078125 0  0.34765625 0.0078125 0  0.3515625 0.0078125 0  0.35546875 0.0078125 0  0.359375 0.0078125 0  0.36328125 0.0078125 0  0.3671875 0.0078125 0  0.37109375 0.0078125 0  0.375 0.0078125 0  0.37890625 0.0078125 0  0.3828125 0.0078125 0  0.38671875 0.0078125 0  0.390625 0.0078125 0  0.39453125 0.0078125 0  0.3984375 0.0078125 0  0.40234375 0.0078125 0  0.40625 0.0078125 0  0.41015625 0.0078125 0  0.4140625 0.0078125 0  0.41796875 0.0078125 0  0.421875 0.0078125 0  0.42578125 0.0078125 0  0.4296875 0.0078125 0  0.16796875 0.01171875 0  0.171875 0.01171875 0  0.17578125 0.01171875 0  0.1796875 0.01171875 0  0.18359375 0.01171875 0  0.1875 0.01171875 0  0.19140625 0.01171875 0  0.1953125 0.01171875 0  0.19921875 0.01171875 0  0.203125 0.01171875 0  0.20703125 0.01171875 0  0.2109375 0.01171875 0  0.21484375 0.01171875 0  0.21875 0.01171875 0  0.22265625 0.01171875 0  0.2265625 0.01171875 0  0.23046875 0.01171875 0  0.234375 0.01171875 0  0.23828125 0.01171875 0  0.2421875 0.01171875 0  0.24609375 0.01171875 0  0.25 0.01171875 0  0.25390625 0.01171875 0  0.2578125 0.01171875 0  0.26171875 0.01171875 0  0.265625 0.01171875 0  0.26953125 0.01171875 0  0.2734375 0.01171875 0  0.27734375 0.01171875 0  0.28125 0.01171875 0  0.28515625 0.01171875 0  0.2890625 0.01171875 0  0.29296875 0.01171875 0  0.296875 0.01171875 0  0.30078125 0.01171875 0  0.3046875 0.01171875 0  0.30859375 0.01171875 0  0.3125 0.01171875 0  0.31640625 0.01171875 0  0.3203125 0.01171875 0  0.32421875 0.01171875 0  0.328125 0.01171875 0  0.33203125 0.01171875 0  0.3359375 0.01171875 0  0.33984375 0.01171875 0  0.34375 0.01171875 0  0.34765625 0.01171875 0  0.3515625 0.01171875 0  0.35546875 0.01171875 0  0.359375 0.01171875 0  0.36328125 0.01171875 0  0.3671875 0.01171875 0  0.37109375 0.01171875 0  0.375 0.01171875 0  0.37890625 0.01171875 0  0.3828125 0.01171875 0  0.38671875 0.01171875 0  0.390625 0.01171875 0  0.39453125 0.01171875 0  0.3984375 0.01171875 0  0.40234375 0.01171875 0  0.40625 0.01171875 0  0.41015625 0.01171875 0  0.4140625 0.01171875 0  0.41796875 0.01171875 0  0.421875 0.01171875 0  0.42578125 0.01171875 0  0.4296875 0.01171875 0  0.43359375 0.01171875 0  0.171875 0.015625 0  0.17578125 0.015625 0  0.1796875 0.015625 0  0.18359375 0.015625 0  0.1875 0.015625 0  0.19140625 0.015625 0  0.1953125 0.015625 0  0.19921875 0.015625 0  0.203125 0.015625 0  0.20703125 0.015625 0  0.2109375 0.015625 0  0.21484375 0.015625 0  0.21875 0.015625 0  0.22265625 0.015625 0  0.2265625 0.015625 0  0.23046875 0.015625 0  0.234375 0.015625 0  0.23828125 0.015625 0  0.2421875 0.015625 0  0.24609375 0.015625 0  0.25 0.015625 0  0.25390625 0.015625 0  0.2578125 0.015625 0  0.26171875 0.015625 0  0.265625 0.015625 0  0.26953125 0.015625 0  0.2734375 0.015625 0  0.27734375 0.015625 0  0.28125 0.015625 0  0.28515625 0.015625 0  0.2890625 0.015625 0  0.29296875 0.015625 0  0.296875 0.015625 0  0.30078125 0.015625 0  0.3046875 0.015625 0  0.30859375 0.015625 0  0.3125 0.015625 0  0.31640625 0.015625 0  0.3203125 0.015625 0  0.32421875 0.015625 0  0.328125 0.015625 0  0.33203125 0.015625 0  0.3359375 0.015625 0  0.33984375 0.015625 0  0.34375 0.015625 0  0.34765625 0.015625 0  0.3515625 0.015625 0  0.35546875 0.015625 0  0.359375 0.015625 0  0.36328125 0.015625 0  0.3671875 0.015625 0  0.37109375 0.015625 0  0.375 0.015625 0  0.37890625 0.015625 0  0.3828125 0.015625 0  0.38671875 0.015625 0  0.390625 0.015625 0  0.39453125 0.015625 0  0.3984375 0.015625 0  0.40234375 0.015625 0  0.40625 0.015625 0  0.41015625 0.015625 0  0.4140625 0.015625 0  0.41796875 0.015625 0  0.421875 0.015625 0  0.42578125 0.015625 0  0.4296875 0.015625 0  0.43359375 0.015625 0  0.4375 0.015625 0  0.17578125 0.01953125 0  0.171875 0.01953125 0  0.1796875 0.01953125 0  0.18359375 0.01953125 0  0.1875 0.01953125 0  0.19140625 0.01953125 0  0.1953125 0.01953125 0  0.19921875 0.01953125 0  0.203125 0.01953125 0  0.20703125 0.01953125 0  0.2109375 0.01953125 0  0.21484375 0.01953125 0  0.21875 0.01953125 0  0.22265625 0.01953125 0  0.2265625 0.01953125 0  0.23046875 0.01953125 0  0.234375 0.01953125 0  0.23828125 0.01953125 0  0.2421875 0.01953125 0  0.24609375 0.01953125 0  0.25 0.01953125 0  0.25390625 0.01953125 0  0.2578125 0.01953125 0  0.26171875 0.01953125 0  0.265625 0.01953125 0  0.26953125 0.01953125 0  0.2734375 0.01953125 0  0.27734375 0.01953125 0  0.28125 0.01953125 0  0.28515625 0.01953125 0  0.2890625 0.01953125 0  0.29296875 0.01953125 0  0.296875 0.01953125 0  0.30078125 0.01953125 0  0.3046875 0.01953125 0  0.30859375 0.01953125 0  0.3125 0.01953125 0  0.31640625 0.01953125 0  0.3203125 0.01953125 0  0.32421875 0.01953125 0  0.328125 0.01953125 0  0.33203125 0.01953125 0  0.3359375 0.01953125 0  0.33984375 0.01953125 0  0.34375 0.01953125 0  0.34765625 0.01953125 0  0.3515625 0.01953125 0  0.35546875 0.01953125 0  0.359375 0.01953125 0  0.36328125 0.01953125 0  0.3671875 0.01953125 0  0.37109375 0.01953125 0  0.375 0.01953125 0  0.37890625 0.01953125 0  0.3828125 0.01953125 0  0.38671875 0.01953125 0  0.390625 0.01953125 0  0.39453125 0.01953125 0  0.3984375 0.01953125 0  0.40234375 0.01953125 0  0.40625 0.01953125 0  0.41015625 0.01953125 0  0.4140625 0.01953125 0  0.41796875 0.01953125 0  0.421875 0.01953125 0  0.42578125 0.01953125 0  0.4296875 0.01953125 0  0.43359375 0.01953125 0  0.4375 0.01953125 0  0.44140625 0.01953125 0  0.17578125 0.0234375 0  0.1796875 0.0234375 0  0.18359375 0.0234375 0  0.1875 0.0234375 0  0.19140625 0.0234375 0  0.1953125 0.0234375 0  0.19921875 0.0234375 0  0.203125 0.0234375 0  0.20703125 0.0234375 0  0.2109375 0.0234375 0  0.21484375 0.0234375 0  0.21875 0.0234375 0  0.22265625 0.0234375 0  0.2265625 0.0234375 0  0.23046875 0.0234375 0  0.234375 0.0234375 0  0.23828125 0.0234375 0  0.2421875 0.0234375 0  0.24609375 0.0234375 0  0.25 0.0234375 0  0.25390625 0.0234375 0  0.2578125 0.0234375 0  0.26171875 0.0234375 0  0.265625 0.0234375 0  0.26953125 0.0234375 0  0.2734375 0.0234375 0  0.27734375 0.0234375 0  0.28125 0.0234375 0  0.28515625 0.023437
[...]
<CellData  Scalars="f_11"> 
<DataArray  type="Float64"  Name="f_11"  format="ascii">1.9996719867006324e-03   2.0433028758332313e-03   4.0442346841162869e-03   2.0866204253648089e-03   4.1311712386055020e-03   2.1296293479369731e-03   4.2174856419417974e-03   2.1722997024062507e-03   4.3031526673561098e-03   2.2146453375131662e-03   4.3881562244130080e-03   2.2566372567757397e-03   4.4724811692764986e-03   2.2983039122051029e-03   4.5561269648571236e-03   2.3396092452955186e-03   4.6390851214595978e-03   2.3805722022983197e-03   4.7213394155407960e-03   2.4211630814881500e-03   4.8028800683940897e-03   2.4613882202807100e-03   4.8836827235470854e-03   2.5012319635793899e-03   4.9637379641335137e-03   2.5407001946350671e-03   5.0430361398187563e-03   2.5797759987294380e-03   5.1215662324593366e-03   2.6184714800246934e-03   5.1993234220011706e-03   2.6567633713782323e-03   5.2762970161098375e-03   2.6946630560403277e-03   5.3524741782859601e-03   2.7321478818856742e-03   5.4278441233456811e-03   2.7692250938653549e-03   5.5023914459536999e-03   2.8058773290899376e-03   5.5761060301690582e-03   2.8421108805122761e-03   5.6489768080879889e-03   2.8779091627973556e-03   5.7209934893934266e-03   2.9132791322031026e-03   5.7921464471061409e-03   2.9482041284302012e-03   5.8624259792547113e-03   2.9826904368411462e-03   5.9318217129548500e-03   3.0167217027152081e-03   6.0003235808988448e-03   3.0503034981841730e-03   6.0679208025345519e-03   3.0834207161116751e-03   6.1346038449064917e-03   3.1160774632807268e-03   6.2003617096934660e-03   3.1482599227001477e-03   6.2651846887483509e-03   3.1799751766019386e-03   6.3290660494260374e-03   3.2112066703346752e-03   6.3919963213806118e-03   3.2419604509114756e-03   6.4539649990447848e-03   3.2722209741515153e-03   6.5149625873527697e-03   3.3019969099236427e-03   6.5749822141455642e-03   3.3312708611428631e-03   6.6340151543512202e-03   3.3600489874083548e-03   6.6920501726117155e-03   3.3883163058600081e-03   6.7490784478548152e-03   3.4160824904709668e-03   6.8050948574230694e-03   3.4433294156893603e-03   6.8600906040699435e-03   3.4700649743410663e-03   6.9140555987628315e-03   3.4962731005744184e-03   6.9669816678823515e-03   3.5219643639178822e-03   7.0188633277677888e-03   3.5471207150971763e-03   7.0696930280561166e-03   3.5717488338695503e-03   7.1194594876686874e-03   3.5958348433120652e-03   7.1681556521743231e-03   3.6193878011043980e-03   7.2157765659672064e-03   3.6423909089845956e-03   7.2623144909440187e-03   3.6648496232931298e-03   7.3077580876166077e-03   3.6867504261264513e-03   7.3520997831551518e-03   3.7081084962691051e-03   7.3953402615129175e-03   3.7289017598312762e-03   7.4374731254629308e-03   3.7491454505925626e-03   7.4784915375649269e-03   3.7688175197245007e-03   7.5183886854586143e-03   3.7879344765269635e-03   7.5571590323067952e-03   3.8064735546200989e-03   7.5947964319344960e-03   3.8244454218623776e-03   7.6312885728145111e-03   3.8418309607953448e-03   7.6666271162245036e-03   3.8586504475367233e-03   7.7008132235453757e-03   3.8748785912314167e-03   7.7338418828920806e-03   3.8905456288134111e-03   7.7657180430913911e-03   3.9056150664431391e-03   7.7964354511119143e-03   3.9200979569479055e-03   7.8259686720733353e-03   3.9339776610358961e-03   7.8543120991197389e-03   3.9472901196252854e-03   7.8814850515246601e-03   3.9599943500530591e-03   7.9074825151287977e-03   3.9721220202057744e-03   7.9322951575783278e-03   8.1351970362553410e-03   1.0094374910488018e-02   8.3087336672293365e-03   1.0311832105874809e-02   8.4810014837553554e-03   1.0527703094807481e-02   8.6519836125933565e-03   1.0741980477331952e-02   8.8216134330096358e-03   1.0954592136466712e-02   8.9899030119844781e-03   1.1165528602091948e-02   9.1568018859586216e-03   1.1374738164406067e-02   9.3223404022548077e-03   1.1582234079340298e-02   9.4864489196681938e-03   1.1787973119703660e-02   9.6491292825691254e-03   1.1991930026611369e-02   9.8103218172941719e-03   1.2194052329472200e-02   9.9700228353831570e-03   1.2394311405103083e-02   1.0128196173755778e-02   1.2592676084442596e-02   1.0284841290021659e-02   1.2789134514768919e-02   1.0439921337566800e-02   1.2983648214471148e-02   1.0593440162398849e-02   1.3176212272251181e-02   1.0745348430565550e-02   1.3366780975266812e-02   1.0895644812518137e-02   1.3555339152894853e-02   1.1044280573608400e-02   1.3741837891306060e-02   1.1191254229075340e-02   1.3926262607019900e-02   1.1336526833647080e-02   1.4108575734156817e-02   1.1480094315879083e-02   1.4288761907495071e-02   1.1621920127488495e-02   1.4466783838993394e-02   1.1762002562857725e-02   1.4642629560371221e-02   1.1900303996355673e-02   1.4816263154744004e-02   1.2036819812303749e-02   1.4987669173474863e-02   1.2171513141762198e-02   1.5156810553051970e-02   1.2304379763625401e-02   1.5323672022525875e-02   1.2435384751835943e-02   1.5488219929746671e-02   1.2564523880734335e-02   1.5650439862623489e-02   1.2691765702078412e-02   1.5810298925071763e-02   1.2817108518155110e-02   1.5967787176710092e-02   1.2940515113323836e-02   1.6122869125061685e-02   1.3061984586219115e-02   1.6275532701176442e-02   1.3181483149129187e-02   1.6425744038617757e-02   1.3299011591776608e-02   1.6573494432864506e-02   1.3414532077000885e-02   1.6718749348628166e-02   1.3528045058764124e-02   1.6861498432908802e-02   1.3639518899736525e-02   1.7001708040128450e-02   1.3748957240588238e-02   1.7139373442320655e-02   1.3856319546260520e-02   1.7274459274999154e-02   1.3961610917688183e-02   1.7406957395226706e-02   1.4064798364032863e-02   1.7536836543990571e-02   1.4165885563547698e-02   1.7664090938111082e-02   1.4264834724231512e-02   1.7788687251291561e-02   1.4361649705436337e-02   1.7910616788338468e-02   1.4456300442498071e-02   1.8029851425893046e-02   1.4548788145256467e-02   1.8146383922491922e-02   1.4639075875592510e-02   1.8260180886963882e-02   1.4727169787739828e-02   1.8371236335233361e-02   1.4813043703382300e-02   1.8479523200790632e-02   1.4896713309831493e-02   1.8585051455787611e-02   1.4978136466987391e-02   1.8687786213049638e-02   1.5057328794361207e-02   1.8787729833400508e-02   1.5134248464235285e-02   1.8884846407726648e-02   1.5208909350611892e-02   1.8979136283032969e-02   1.5281267939709723e-02   1.9070565403043780e-02   1.5351329040212401e-02   1.9159126274987073e-02   1.5419066942117053e-02   1.9244786168896633e-02   1.5484514313394347e-02   1.9327576178938006e-02   1.5547627296884678e-02   1.9407459904097278e-02   1.5608430565159119e-02   1.9484449628126909e-02   1.5666846993163449e-02   1.9558488064870472e-02   1.5722913080901180e-02   1.9629576756046537e-02   1.5776611296265525e-02   1.9697704316142633e-02   1.5827979760186763e-02   1.9762913008316414e-02   1.5876950901541127e-02   1.9825146709578446e-02   1.9884414029434631e-02   1.4232502265651013e-02   1.4536205004593229e-02   1.6497713066522732e-02   1.4837677271540173e-02   1.6843096356806749e-02   1.5136889370303731e-02   1.7185900099686239e-02   1.5433758065085597e-02   1.7526074330200862e-02   1.5728251759337165e-02   1.7863518623108282e-02   1.6020340307293372e-02   1.8198239663191538e-02   1.6309982376503249e-02   1.8530154875520916e-02   1.6597174830754447e-02   1.8859288803116291e-02   1.6881834170619430e-02   1.9185553197770096e-02   1.7163924655349147e-02   1.9508905933274097e-02   1.7443389466111930e-02   1.9829272591438261e-02   1.7720204884218927e-02   2.0146628239971293e-02   1.7994326623914605e-02   2.0460915513034791e-02   1.8265733524988583e-02   2.0772117180307248e-02   1.8534374446134202e-02   2.1080167334270421e-02   1.8800228027905503e-02   2.1385047944374583e-02   1.9063233107398173e-02   2.1686688993969878e-02   1.9323357691880250e-02   2.1985058169313416e-02   1.9580551901969653e-02   2.2280088360602152e-02   1.9834792485646340e-02   2.2571759013891461e-02   2.0086032414670250e-02   2.2860012877994832e-02   2.0334242891550738e-02   2.3144822815441179e-02   2.0579381672796798e-02   2.3426130264441489e-02   2.0821425793822384e-02   2.3703916330309004e-02   2.1060327988445076e-02   2.3978124510213236e-02   2.1296055743383131e-02   2.4248725136401316e-02   2.1528571328145230e-02   2.4515661049241803e-02   2.1757849883050042e-02   2.4778912284696222e-02   2.1983850002080956e-02   2.5038427885737482e-02   2.2206545674915017e-02   2.5294181526959530e-02   2.2425897172917285e-02   2.5546123190671600e-02   2.2641882990587375e-02   2.5794233175657547e-02   2.2854461598018950e-02   2.6038458707097971e-02   2.3063608542627019e-02   2.6278778696065656e-02   2.3269284758932470e-02   2.6515138684694756e-02   2.3471472509301958e-02   2.6747525783083724e-02   2.3670130775097560e-02   2.6975889154316916e-02   2.3865239234534721e-02   2.7200211007085105e-02   2.4056760876722569e-02   2.7420438157051790e-02   2.4244674969890335e-02   2.7636558304061396e-02   2.4428944335979631e-02   2.7848520156971306e-02   2.4609552300985001e-02   2.8056311644492002e-02   2.4786458920463855e-02   2.8259880191048685e-02   2.4959651196579020e-02   2.8459215638603153e-02   2.5129090899122773e-02   2.8654270984563524e-02   2.5294763075087014e-02   2.8845033722970575e-02   2.5456627439964130e-02   2.9031453864540795e-02   2.5614668630182465e-02   2.9213517655917232e-02   2.5768855417287857e-02   2.9391180875292539e-02   2.5919176645133712e-02   2.9564440429554747e-02   2.6065604514853499e-02   2.9733249455381885e-02   2.6208138470494895e-02   2.9897618094163522e-02   2.6346736009813802e-02   3.0057494373082468e-02   2.6481385283424141e-02   3.0212873321933575e-02   2.6612047746596829e-02   3.0363698291284113e-02   2.6738716910765584e-02   3.0509971825201820e-02   2.6861355339729723e-02   3.0651648020090544e-02   2.6979951374353883e-02   3.0788722824393190e-02   2.7094500163780056e-02   3.0921155678475747e-02   2.7204999538313294e-02   3.1048977491963572e-02   2.7311404721953321e-02   3.1172121580579609e-02   2.7413683822454498e-02   3.1290580921276026e-02   2.7511820955462958e-02   3.1404286395261057e-02   2.7605854650484811e-02   3.1513307496100443e-02   2.7695754798021065e-02   3.1617603321547914e-02   2.7781503291702554e-02   3.1717178026595044e-02   2.7863073352852357e-02   3.1811966138535284e-02   3.1901967794157958e-02   2.0768197296351189e-02   2.1198800301487360e-02   2.3162379809666258e-02   2.1626159434965968e-02   2.3633627349161287e-02   2.2050203357637639e-02   2.4101269722262814e-02   2.2470808164403496e-02   2.4565169184390841e-02   2.2887971831497909e-02   2.5025266146716928e-02   2.3301628369716297e-02   2.5481534296911468e-02   2.3711760768517068e-02   2.5933916416358407e-02   2.4118298499570603e-02   2.6382393139379626e-02   2.4521173368977627e-02   2.6826860121091953e-02   2.4920309311010653e-02   2.7267241666612037e-02   2.5315655911304927e-02   2.7703466334094311e-02   2.5707169213225398e-02   2.8135486163290604e-02   2.6094789959310690e-02   2.8563253012088875e-02   2.6478468038308559e-02   2.8986706918775338e-02   2.6858143855777502e-02   2.9405770974016174e-02   2.7233767365140698e-02   2.9820402224946922e-02   2.7605267261166501e-02   3.0230520486889415e-02   2.7972586216619449e-02   3.0636064558427420e-02   2.8335678817181669e-02   3.1036969482104139e-02   2.8694497031674829e-02   3.1433196365820149e-02   2.9048983014462220e-02   3.1824676692910878e-02   2.9399083433111591e-02   3.2211356319082084e-02   2.9744754821958919e-02   3.2593173263556249e-02   3.0085948336673364e-02   3.2970088044923074e-02   3.0422605570807476e-02   3.3342032184742486e-02   3.0754673503642388e-02   3.3708950718914166e-02   3.1082112745300851e-02   3.4070784598907639e-02   3.1404879577650188e-02   3.4427502379150557e-02   3.1722921388215447e-02   3.4779039812242979e-02   3.2036187781618333e-02   3.5125346396807970e-02   3.2344639146836072e-02   3.5466364628668194e-02   3.2648230136349370e-02   3.5802059701413737e-02   3.2946915897171303e-02   3.6132371571298810e-02   3.3240645761053185e-02   3.6457253250553219e-02   3.3529385020501401e-02   3.6776651307558840e-02   3.3813096024820896e-02   3.7090538843331120e-02   3.4091729471578631e-02   3.7398856260702509e-02   3.4365239224419669e-02   3.7701558739309596e-02   3.4633589541385741e-02   3.7998591807125136e-02   3.4896744196237818e-02   3.8289929073820395e-02   3.5154658199207163e-02   3.8575513948534985e-02   3.5407290921845150e-02   3.8855308461846441e-02   3.5654607932043267e-02   3.9129260852506932e-02   3.5896579878188999e-02   3.9397351829236149e-02   3.6133161058174407e-02   3.9659526992186070e-02   3.6364309687903641e-02   3.9915745807428217e-02   3.6589992000059302e-02   4.0165957184066896e-02   3.6810180539094468e-02   4.0410142639008162e-02   3.7024840669888918e-02   4.0648255243282652e-02   3.7233941219098197e-02   4.0880269262528489e-02   3.7437461947289807e-02   4.1106141641526449e-02   3.7635376362598574e-02   4.1325866021046431e-02   3.7827637027421042e-02   4.1539383403607209e-02   3.8014206490393894e-02   4.1746658895993716e-02   3.8195064210872216e-02   4.1947650070726573e-02   3.8370189476050309e-02   4.2142351365483645e-02   3.8539549568256948e-02   4.2330723004700546e-02   3.8703113768521140e-02   4.2512735181457664e-02   3.8860881700754260e-02   4.2688361442210415e-02   3.9012799243031672e-02   4.2857580132244492e-02   3.9158838648185666e-02   4.3020338791255767e-02   3.9298952924488012e-02   4.3176606194362588e-02   3.9433192701932386e-02   4.3326370535075473e-02   3.9561535323699298e-02   4.3469672115611625e-02   3.9683932686177537e-02   4.3606444426385685e-02   3.9800364513956125e-02   4.3736656501519137e-02   3.9910787437912314e-02   4.3860291268656218e-02   4.3977307969861740e-02   2.7562606284993310e-02   2.9483835328192445e-02   2.8118007281486255e-02   3.0083424961030440e-02   2.8669096978321224e-02   3.0678389537259810e-02   2.9215761798690183e-02   3.1268650707516263e-02   2.9757876869590610e-02   3.1854038555651332e-02   3.0295445768628863e-02   3.2434520632298854e-02   3.0828425171625550e-02   3.3010074737454785e-02   3.1356740684568625e-02   3.3580642727766209e-02   3.1880290771581193e-02   3.4146114032339248e-02   3.2398986534096112e-02   3.4706385391763808e-02   3.2912758466168833e-02   3.5261381724228456e-02   3.3421544517318838e-02   3.5811028823767223e-02   3.3925273591436392e-02   3.6355254007852639e-02   3.4423868108542713e-02   3.6893977431827339e-02   3.4917261868419786e-02   3.7427126993857224e-02   3.5405380323510226e-02   3.7954619516068287e-02   3.5888142657702030e-02   3.8476374465782552e-02   3.6365480439507582e-02   3.8992307613217647e-02   3.6837312354782589e-02   3.9502347629891008e-02   3.7303593662842485e-02   4.0006424431674875e-02   3.7764244342750927e-02   4.0504465545247829e-02   3.8219197769571327e-02   4.0996394832088875e-02   3.8668389561077821e-02   4.1482142873819648e-02   3.9111760900191035e-02   4.1961644630580670e-02   3.9549234174156511e-02   4.2434822988824970e-02   3.9980747718595437e-02   4.2901604361313586e-02   4.0406241809808778e-02   4.3361925872519254e-02   4.0825663396641003e-02   4.3815727567498179e-02   4.1238942836548977e-02   4.4262940364378285e-02   4.1646018180245471e-02   4.4703493087950734e-02   4.2046829709069415e-02   4.5137322110165537e-02   4.2441326418835905e-02   4.5564368957587788e-02   4.2829441577854080e-02   4.5984567637060644e-02   4.3211119590754486e-02   4.6397852870420607e-02   4.3586308801129584e-02   4.6804170012923668e-02   4.3954961343738129e-02   4.7203465411569813e-02   4.4317013837227366e-02   4.7595676478734986e-02   4.4672408961675229e-02   4.7980737455279893e-02   4.5021094471653443e-02   4.8358592629682506e-02   4.5363026460485449e-02   4.8729190429371759e-02   4.5698142845749565e-02   4.9092471427140079e-02   4.6026395417802624e-02   4.9448374780365373e-02   4.6347738899650652e-02   4.9796856325592539e-02   4.6662133386127166e-02   5.0137867998041430e-02   4.6969521382829491e-02   5.0471356708071423e-02   4.7269850820393061e-02   5.0797261044521896e-02   4.7563072735077497e-02   5.1115530527963304e-02   4.7849156036962111e-02   5.1426121707701049e-02   4.8128052020229933e-02   5.1728991946260953e-02   4.8399722295193591e-02   5.2024091684312782e-02   4.8664135122386591e-02   5.2311388500664725e-02   4.8921254013058989e-02   5.2590844178537564e-02   4.9171021501373612e-02   5.2862403204682669e-02   4.9413396105756208e-02   5.3126013084719183e-02   4.9648343518921847e-02   5.3381637899399724e-02   4.9875843159044780e-02   5.3629250116837696e-02   5.0095854280173886e-02   5.3868811964312632e-02   5.0308339354448041e-02   5.4100284031027644e-02   5.0513267382151540e-02   5.4323622479531590e-02   5.0710604422923244e-02   5.4538810285500554e-02   5.0900287031814567e-02   5.4745769872716857e-02   5.1082310765890704e-02   5.4944489499813821e-02   5.1256657316971280e-02   5.5134941597909298e-02   5.1423331603660798e-02   5.5317135249365233e-02   5.1582268420436783e-02   5.5491016949695632e-02   5.1733442629730259e-02   5.5656540878359431e-02   5.1876843162074110e-02   5.5813698734175007e-02   5.2012465486705559e-02   5.5962497413634592e-02   5.6102851962467594e-02   3.3927525668795248e-02   3.4610852371037476e-02   3.6533720046592250e-02   3.5288857923102657e-02   3.7255902585967157e-02   3.5961418386702498e-02   3.7972329595184477e-02   3.6628418857513986e-02   3.8682904606484492e-02   3.7289770956607377e-02   3.9387502421478003e-02   3.7945478214963121e-02   4.0086099218208188e-02   3.8595449553915223e-02   4.0778633403706854e-02   3.9239548957327529e-02   4.1464980413007738e-02   3.9877678258008108e-02   4.2145016628747443e-02   4.0509755557495926e-02   4.2818651562404719e-02   4.1135693368383082e-02   4.3485793798560178e-02   4.1755400409092251e-02   4.4146346940744367e-02   4.2368788330742709e-02   4.4800220165179545e-02   4.2975773681940464e-02   4.5447316570524809e-02   4.3576263712776370e-02   4.6087545195583175e-02   4.4170164279158326e-02   4.6720807349070650e-02   4.4757383256458158e-02   4.7347002759819623e-02   4.5337841437878688e-02   4.7966048185052096e-02   4.5911464393834416e-02   4.8577853646659688e-02   4.6478159389905106e-02   4.9182331417632667e-02   4.7037841425832165e-02   4.9779384929434622e-02   4.7590439973342370e-02   5.0368941828947078e-02   4.8135868009762668e-02   5.0950910422632945e-02   4.8674043274812680e-02   5.1525203962628580e-02   4.9204881958413958e-02   5.2091731161211519e-02   4.9728321371427311e-02   5.2650420763982485e-02   5.0244281268317106e-02   5.3201190961140038e-02   5.0752685406865630e-02   5.3743962093750132e-02   5.1253451721908871e-02   5.4278646741832519e-02   5.1746516752010467e-02   5.4805171675385352e-02   5.2231802130117778e-02   5.5323457503768818e-02   5.2709237885018426e-02   5.5833429591011022e-02   5.3178750790168913e-02   5.6335009508206073e-02   5.3640284928041355e-02   5.6828132198747744e-02   5.4093768728596850e-02   5.7312726816416873e-02   5.4539131097095107e-02   5.7788719071788015e-02   5.4976299945089444e-02   5.8256030747061281e-02   5.5405220161246660e-02   5.8714598793146132e-02   5.5825819157111461e-02   5.9164350548806262e-02   5.6238034532700584e-02   5.9605218118854712e-02   5.6641797994882538e-02   6.0037128997432063e-02   5.7037067326529724e-02   6.0460029172943436e-02   5.7423777078990955e-02   6.0873858657444081e-02   5.7801867232781273e-02   6.1278552865525707e-02   5.8171267940450327e-02   6.1674038687676576e-02   5.8531934208348506e-02   6.2060261209624074e-02   5.8883803202123892e-02   6.2437157978944530e-02   5.9226832016452326e-02   6.2804677664839187e-02   5.9560965815870275e-02   6.3162766282718885e-02   5.9886171104071850e-02   6.3511379088564968e-02   6.0202391210388451e-02   6.3850464814068017e-02   6.0509565908296238e-02   6.4179963803265766e-02   6.0807638959573654e-02   6.4499810133203911e-02   6.1096583889236347e-02   6.4809968022714590e-02   6.1376353295341496e-02   6.5110392738658388e-02   6.1646906281719545e-02   6.5401040614150988e-02   6.1908195569951828e-02   6.5681859596179420e-02   6.2160185751756483e-02   6.5952813718458417e-02   6.24028301061946