<?xml version="1.0"?>
<VTKFile type="UnstructuredGrid"  version="0.1"  >
<UnstructuredGrid>
<Piece  NumberOfPoints="8310" NumberOfCells="16235">
<Points>
<DataArray  type="Float64"  NumberOfComponents="3"  format="ascii">0.71484375 0.9999999999999999 0  0.716796875 0.9999999999999999 0  0.716796875 0.9863281249999999 0  0.71875 1 0  0.71875 0.9863281250000002 0  0.720703125 1 0  0.720703125 0.986328125 0  0.72265625 0.9999999999999999 0  0.72265625 0.9863281249999999 0  0.724609375 1 0  0.724609375 0.986328125 0  0.7265625 0.9999999999999999 0  0.7265625 0.9863281249999999 0  0.728515625 0.9999999999999999 0  0.728515625 0.9863281249999999 0  0.73046875 0.9999999999999998 0  0.73046875 0.9863281249999998 0  0.732421875 0.9999999999999998 0  0.732421875 0.9863281249999998 0  0.734375 0.9999999999999999 0  0.734375 0.9863281249999999 0  0.736328125 0.9999999999999999 0  0.736328125 0.9863281249999999 0  0.73828125 1 0  0.73828125 0.986328125 0  0.740234375 1 0  0.740234375 0.986328125 0  0.7421875 1 0  0.7421875 0.986328125 0  0.744140625 1 0  0.744140625 0.986328125 0  0.74609375 1 0  0.74609375 0.986328125 0  0.748046875 1 0  0.748046875 0.986328125 0  0.75 0.9999999999999999 0  0.75 0.9863281249999999 0  0.751953125 0.9999999999999999 0  0.751953125 0.9863281249999999 0  0.75390625 1 0  0.75390625 0.986328125 0  0.755859375 0.9999999999999999 0  0.755859375 0.9863281249999999 0  0.7578125 0.9999999999999999 0  0.7578125 0.9863281249999999 0  0.759765625 1 0  0.759765625 0.986328125 0  0.76171875 0.9999999999999998 0  0.76171875 0.9863281249999998 0  0.763671875 1 0  0.763671875 0.986328125 0  0.765625 1 0  0.765625 0.986328125 0  0.767578125 0.9999999999999999 0  0.767578125 0.9863281249999999 0  0.76953125 1 0  0.76953125 0.986328125 0  0.771484375 1 0  0.771484375 0.986328125 0  0.7734375 0.9999999999999999 0  0.7734375 0.9863281249999999 0  0.775390625 1 0  0.775390625 0.986328125 0  0.77734375 1 0  0.77734375 0.986328125 0  0.779296875 0.9999999999999999 0  0.779296875 0.9863281249999999 0  0.78125 1 0  0.78125 0.986328125 0  0.783203125 1 0  0.783203125 0.986328125 0  0.78515625 1 0  0.78515625 0.986328125 0  0.787109375 0.9999999999999999 0  0.787109375 0.9863281249999999 0  0.7890625 0.9999999999999999 0  0.7890625 0.9863281249999999 0  0.791015625 0.9999999999999999 0  0.791015625 0.9863281249999999 0  0.79296875 1 0  0.79296875 0.986328125 0  0.794921875 0.9999999999999998 0  0.794921875 0.9863281249999998 0  0.796875 0.9999999999999999 0  0.796875 0.9863281249999999 0  0.798828125 0.9999999999999999 0  0.798828125 0.9863281249999999 0  0.80078125 0.9999999999999999 0  0.80078125 0.9863281249999999 0  0.802734375 0.9999999999999999 0  0.802734375 0.9863281249999999 0  0.8046875 0.9999999999999999 0  0.8046875 0.9863281249999999 0  0.806640625 0.9999999999999999 0  0.806640625 0.9863281249999999 0  0.80859375 1 0  0.80859375 0.9863281250000002 0  0.810546875 0.9999999999999999 0  0.810546875 0.9863281249999999 0  0.8125 0.9999999999999999 0  0.8125 0.9863281249999999 0  0.814453125 1 0  0.814453125 0.986328125 0  0.81640625 1 0  0.81640625 0.986328125 0  0.818359375 1 0  0.818359375 0.986328125 0  0.8203125 1 0  0.8203125 0.986328125 0  0.822265625 1 0  0.822265625 0.986328125 0  0.82421875 1 0  0.82421875 0.986328125 0  0.826171875 1 0  0.826171875 0.986328125 0  0.828125 1 0  0.828125 0.986328125 0  0.830078125 1 0  0.830078125 0.986328125 0  0.83203125 1 0  0.83203125 0.9863281250000002 0  0.833984375 0.9999999999999998 0  0.833984375 0.9863281249999998 0  0.8359375 0.9999999999999998 0  0.8359375 0.9863281249999998 0  0.837890625 1 0  0.837890625 0.986328125 0  0.83984375 0.9999999999999999 0  0.83984375 0.9863281249999999 0  0.841796875 0.9999999999999999 0  0.841796875 0.9863281249999999 0  0.84375 1 0  0.84375 0.986328125 0  0.845703125 0.9999999999999999 0  0.845703125 0.9863281249999999 0  0.84765625 0.9999999999999998 0  0.84765625 0.9863281249999998 0  0.849609375 0.9999999999999998 0  0.849609375 0.9863281249999998 0  0.8515625 0.9999999999999999 0  0.8515625 0.9863281249999999 0  0.853515625 0.9999999999999999 0  0.853515625 0.9863281249999999 0  0.85546875 0.9999999999999999 0  0.85546875 0.9863281249999999 0  0.857421875 1.000000000000008 0  0.857421875 0.9863281250000074 0  0.859375 1.000000000003815 0  0.859375 0.9863281250037549 0  0.861328125 1.000000000025145 0  0.861328125 0.9863281250247525 0  0.86328125 1.000000000079334 0  0.86328125 0.9863281250780943 0  0.865234375 1.000000000181712 0  0.865234375 0.9863281251788729 0  0.8671875 1.000000000347614 0  0.8671875 0.9863281253421827 0  0.869140625 1.000000000592373 0  0.869140625 0.9863281255831174 0  0.87109375 1.000000000931323 0  0.87109375 0.9863281259167707 0  0.873046875 1.000000001379795 0  0.873046875 0.9863281263582359 0  0.875 1.000000001953125 0  0.875 0.9863281269226072 0  0.876953125 1.000000002666644 0  0.876953125 0.9863281276249781 0  0.87890625 1.000000003535688 0  0.87890625 0.9863281284804426 0  0.880859375 1.000000004575587 0  0.880859375 0.9863281295040939 0  0.8828125 1.000000005801678 0  0.8828125 0.9863281307110265 0  0.884765625 1.000000007229291 0  0.884765625 0.9863281321163333 0  0.88671875 1.000000008873761 0  0.88671875 0.9863281337351083 0  0.888671875 1.00000001075042 0  0.888671875 0.986328135582445 0  0.890625 1.000000012874603 0  0.890625 0.9863281376734377 0  0.892578125 1.000000015261643 0  0.892578125 0.9863281400231795 0  0.89453125 1.000000017926872 0  0.89453125 0.9863281426467644 0  0.896484375 1.000000020885624 0  0.896484375 0.9863281455592861 0  0.8984375 1.000000024153233 0  0.8984375 0.9863281487758383 0  0.900390625 1.000000027745031 0  0.900390625 0.9863281523115146 0  0.90234375 1.000000031676352 0  0.90234375 0.986328156181409 0  0.904296875 1.00000003596253 0  0.904296875 0.9863281604006151 0  0.90625 1.000000040618896 0  0.90625 0.986328164984226 0  0.908203125 1.000000045660786 0  0.908203125 0.9863281699473365 0  0.91015625 1.000000051103532 0  0.91015625 0.9863281753050396 0  0.912109375 1.000000056962468 0  0.912109375 0.986328181072429 0  0.9140625 1.000000063252926 0  0.9140625 0.9863281872645988 0  0.916015625 1.00000006999024 0  0.916015625 0.9863281938966425 0  0.91796875 1.000000077189743 0  0.91796875 0.9863282009836537 0  0.919921875 1.000000084866769 0  0.919921875 0.9863282085407261 0  0.921875 1.000000093036651 0  0.921875 0.9863282165829538 0  0.923828125 1.000000101714723 0  0.923828125 0.9863282251254301 0  0.92578125 1.000000110916316 0  0.92578125 0.9863282341832489 0  0.927734375 1.000000120656766 0  0.927734375 0.986328243771504 0  0.9296875 1.000000130951404 0  0.9296875 0.9863282539052887 0  0.931640625 1.000000141815565 0  0.931640625 0.9863282645996971 0  0.93359375 1.000000153264582 0  0.93359375 0.9863282758698229 0  0.935546875 1.000000165313788 0  0.935546875 0.9863282877307599 0  0.9375 1.000000177978516 0  0.9375 0.9863283001976014 0  0.939453125 1.000000191274099 0  0.939453125 0.9863283132854412 0  0.94140625 1.000000205215871 0  0.94140625 0.9863283270093735 0  0.943359375 1.000000219819166 0  0.943359375 0.9863283413844913 0  0.9453125 1.000000235099316 0  0.9453125 0.9863283564258888 0  0.947265625 1.000000251071654 0  0.947265625 0.9863283721486598 0  0.94921875 1.000000267751515 0  0.94921875 0.9863283885678975 0  0.951171875 1.000000285154231 0  0.951171875 0.9863284056986963 0  0.953125 1.000000303295135 0  0.953125 0.9863284235561489 0  0.955078125 1.000000322189562 0  0.955078125 0.98632844215535 0  0.95703125 1.000000341852844 0  0.95703125 0.9863284615113929 0  0.958984375 1.000000362300314 0  0.958984375 0.9863284816393714 0  0.9609375 1.000000383547306 0  0.9609375 0.9863285025543793 0  0.962890625 1.000000405609153 0  0.962890625 0.9863285242715102 0  0.96484375 1.000000428501189 0  0.96484375 0.9863285468058577 0  0.966796875 1.000000452238746 0  0.966796875 0.9863285701725156 0  0.96875 1.000000476837158 0  0.96875 0.9863285943865776 0  0.970703125 1.000000502311759 0  0.970703125 0.9863286194631377 0  0.97265625 1.000000528677881 0  0.97265625 0.9863286454172889 0  0.974609375 1.000000555950858 0  0.974609375 0.9863286722641257 0  0.9765625 1.000000584146023 0  0.9765625 0.9863287000187411 0  0.978515625 1.000000613278709 0  0.978515625 0.9863287286962293 0  0.98046875 1.000000643364251 0  0.98046875 0.9863287583116841 0  0.982421875 1.00000067441798 0  0.982421875 0.9863287888801987 0  0.984375 1.000000706455231 0  0.984375 0.9863288204168675 0  0.986328125 1.000000739491336 0  0.986328125 0.9863288529367836 0  0.98828125 1.000000773541629 0  0.98828125 0.9863288864550412 0  0.990234375 1.000000808621444 0  0.990234375 0.9863289209867335 0  0.9921875 1.000000844746113 0  0.9921875 0.9863289565469546 0  0.994140625 1.00000088193097 0  0.994140625 0.9863289931507981 0  0.99609375 1.000000920191348 0  0.99609375 0.9863290308133578 0  0.998046875 1.00000095954258 0  0.998046875 0.986329069549727 0  1 1.000001 0  1 0.986329109375 0  0.71875 0.9726562500000002 0  0.716796875 0.9726562499999999 0  0.720703125 0.97265625 0  0.72265625 0.9726562499999999 0  0.724609375 0.97265625 0  0.7265625 0.9726562499999999 0  0.728515625 0.9726562499999999 0  0.73046875 0.9726562499999998 0  0.732421875 0.9726562499999998 0  0.734375 0.9726562499999999 0  0.736328125 0.9726562499999999 0  0.73828125 0.97265625 0  0.740234375 0.97265625 0  0.7421875 0.97265625 0  0.744140625 0.97265625 0  0.74609375 0.97265625 0  0.748046875 0.97265625 0  0.75 0.9726562499999999 0  0.751953125 0.9726562499999999 0  0.75390625 0.97265625 0  0.755859375 0.9726562499999999 0  0.7578125 0.9726562499999999 0  0.759765625 0.97265625 0  0.76171875 0.9726562499999998 0  0.763671875 0.97265625 0  0.765625 0.97265625 0  0.767578125 0.9726562499999999 0  0.76953125 0.97265625 0  0.771484375 0.97265625 0  0.7734375 0.9726562499999999 0  0.775390625 0.97265625 0  0.77734375 0.97265625 0  0.779296875 0.9726562499999999 0  0.78125 0.97265625 0  0.783203125 0.97265625 0  0.7851562
[...]
<PointData  Vectors="f_13"> 
<DataArray  type="Float64"  Name="f_13"  NumberOfComponents="3" format="ascii">-5.8509243409862152e-07 1.1773501787241696e-06 0.0000000000000000e+00  -5.8523340437379190e-07 1.1806396797569142e-06 0.0000000000000000e+00  -5.6240006224566117e-07 1.1804929263783842e-06 0.0000000000000000e+00  -5.8537090950207854e-07 1.1839260342174763e-06 0.0000000000000000e+00  -5.6255784471630971e-07 1.1837826962957578e-06 0.0000000000000000e+00  -5.8550498353887264e-07 1.1872092295005861e-06 0.0000000000000000e+00  -5.6271227860431798e-07 1.1870692740245493e-06 0.0000000000000000e+00  -5.8563566062889902e-07 1.1904892532834326e-06 0.0000000000000000e+00  -5.6286339602703563e-07 1.1903526471632399e-06 0.0000000000000000e+00  -5.8576297500692790e-07 1.1937660935290293e-06 0.0000000000000000e+00  -5.6301122916870982e-07 1.1936328035955889e-06 0.0000000000000000e+00  -5.8588696099847905e-07 1.1970397384896455e-06 0.0000000000000000e+00  -5.6315581028073358e-07 1.1969097314940830e-06 0.0000000000000000e+00  -5.8600765302051376e-07 1.2003101767103151e-06 0.0000000000000000e+00  -5.6329717168187188e-07 1.2001834193234553e-06 0.0000000000000000e+00  -5.8612508558210881e-07 1.2035773970324173e-06 0.0000000000000000e+00  -5.6343534575846514e-07 1.2034538558442867e-06 0.0000000000000000e+00  -5.8623929328511914e-07 1.2068413885973342e-06 0.0000000000000000e+00  -5.6357036496461060e-07 1.2067210301166744e-06 0.0000000000000000e+00  -5.8635031082482074e-07 1.2101021408501841e-06 0.0000000000000000e+00  -5.6370226182231594e-07 1.2099849315039854e-06 0.0000000000000000e+00  -5.8645817299053845e-07 1.2133596435436337e-06 0.0000000000000000e+00  -5.6383106892162844e-07 1.2132455496766885e-06 0.0000000000000000e+00  -5.8656291466625670e-07 1.2166138867417924e-06 0.0000000000000000e+00  -5.6395681892073940e-07 1.2165028746162656e-06 0.0000000000000000e+00  -5.8666457083120597e-07 1.2198648608241855e-06 0.0000000000000000e+00  -5.6407954454605402e-07 1.2197568966192042e-06 0.0000000000000000e+00  -5.8676317656043371e-07 1.2231125564898150e-06 0.0000000000000000e+00  -5.6419927859223872e-07 1.2230076063010836e-06 0.0000000000000000e+00  -5.8685876702534966e-07 1.2263569647613013e-06 0.0000000000000000e+00  -5.6431605392223310e-07 1.2262549946007368e-06 0.0000000000000000e+00  -5.8695137749424972e-07 1.2295980769891169e-06 0.0000000000000000e+00  -5.6442990346722877e-07 1.2294990527845079e-06 0.0000000000000000e+00  -5.8704104333281446e-07 1.2328358848559063e-06 0.0000000000000000e+00  -5.6454086022661672e-07 1.2327397724505971e-06 0.0000000000000000e+00  -5.8712780000458129e-07 1.2360703803808970e-06 0.0000000000000000e+00  -5.6464895726789682e-07 1.2359771455334987e-06 0.0000000000000000e+00  -5.8721168307138867e-07 1.2393015559244026e-06 0.0000000000000000e+00  -5.6475422772655326e-07 1.2392111643085324e-06 0.0000000000000000e+00  -5.8729272819379199e-07 1.2425294041924235e-06 0.0000000000000000e+00  -5.6485670480588721e-07 1.2424418213964704e-06 0.0000000000000000e+00  -5.8737097113144620e-07 1.2457539182413380e-06 0.0000000000000000e+00  -5.6495642177681072e-07 1.2456691097682634e-06 0.0000000000000000e+00  -5.8744644774346021e-07 1.2489750914826982e-06 0.0000000000000000e+00  -5.6505341197760020e-07 1.2488930227498648e-06 0.0000000000000000e+00  -5.8751919398871154e-07 1.2521929176881256e-06 0.0000000000000000e+00  -5.6514770881360230e-07 1.2521135540271600e-06 0.0000000000000000e+00  -5.8758924592612682e-07 1.2554073909943025e-06 0.0000000000000000e+00  -5.6523934575689456e-07 1.2553306976509975e-06 0.0000000000000000e+00  -5.8765663971492815e-07 1.2586185059080799e-06 0.0000000000000000e+00  -5.6532835634590069e-07 1.2585444480423239e-06 0.0000000000000000e+00  -5.8772141161482793e-07 1.2618262573116772e-06 0.0000000000000000e+00  -5.6541477418495011e-07 1.2617547999974363e-06 0.0000000000000000e+00  -5.8778359798619359e-07 1.2650306404680034e-06 0.0000000000000000e+00  -5.6549863294378967e-07 1.2649617486933345e-06 0.0000000000000000e+00  -5.8784323529016070e-07 1.2682316510260854e-06 0.0000000000000000e+00  -5.6557996635703942e-07 1.2681652896931925e-06 0.0000000000000000e+00  -5.8790036008869817e-07 1.2714292850266068e-06 0.0000000000000000e+00  -5.6565880822358929e-07 1.2713654189519430e-06 0.0000000000000000e+00  -5.8795500904462707e-07 1.2746235389075660e-06 0.0000000000000000e+00  -5.6573519240593780e-07 1.2745621328219825e-06 0.0000000000000000e+00  -5.8800721892158588e-07 1.2778144095100476e-06 0.0000000000000000e+00  -5.6580915282947046e-07 1.2777554280589914e-06 0.0000000000000000e+00  -5.8805702658393848e-07 1.2810018940841218e-06 0.0000000000000000e+00  -5.6588072348166710e-07 1.2809453018278826e-06 0.0000000000000000e+00  -5.8810446899662822e-07 1.2841859902948567e-06 0.0000000000000000e+00  -5.6594993841124863e-07 1.2841317517088696e-06 0.0000000000000000e+00  -5.8814958322496825e-07 1.2873666962284628e-06 0.0000000000000000e+00  -5.6601683172725023e-07 1.2873147757036646e-06 0.0000000000000000e+00  -5.8819240643436709e-07 1.2905440103985635e-06 0.0000000000000000e+00  -5.6608143759801868e-07 1.2904943722418066e-06 0.0000000000000000e+00  -5.8823297588999140e-07 1.2937179317525927e-06 0.0000000000000000e+00  -5.6614379025013761e-07 1.2936705401871232e-06 0.0000000000000000e+00  -5.8827132895635347e-07 1.2968884596783292e-06 0.0000000000000000e+00  -5.6620392396726982e-07 1.2968432788443263e-06 0.0000000000000000e+00  -5.8830750309682693e-07 1.3000555940105626e-06 0.0000000000000000e+00  -5.6626187308891713e-07 1.3000125879657409e-06 0.0000000000000000e+00  -5.8834153587308275e-07 1.3032193350379024e-06 0.0000000000000000e+00  -5.6631767200909240e-07 1.3031784677581874e-06 0.0000000000000000e+00  -5.8837346494444665e-07 1.3063796835097194e-06 0.0000000000000000e+00  -5.6637135517490452e-07 1.3063409188899939e-06 0.0000000000000000e+00  -5.8840332806716585e-07 1.3095366406432369e-06 0.0000000000000000e+00  -5.6642295708504406e-07 1.3094999424981631e-06 0.0000000000000000e+00  -5.8843116309359102e-07 1.3126902081307622e-06 0.0000000000000000e+00  -5.6647251228817683e-07 1.3126555401956848e-06 0.0000000000000000e+00  -5.8845700797125717e-07 1.3158403881470745e-06 0.0000000000000000e+00  -5.6652005538122698e-07 1.3158077140790004e-06 0.0000000000000000e+00  -5.8848090074187182e-07 1.3189871833569575e-06 0.0000000000000000e+00  -5.6656562100756244e-07 1.3189564667356263e-06 0.0000000000000000e+00  -5.8850287954019306e-07 1.3221305969228878e-06 0.0000000000000000e+00  -5.6660924385506268e-07 1.3221018012519284e-06 0.0000000000000000e+00  -5.8852298259280109e-07 1.3252706325128833e-06 0.0000000000000000e+00  -5.6665095865407438e-07 1.3252437212210645e-06 0.0000000000000000e+00  -5.8854124821675348e-07 1.3284072943085070e-06 0.0000000000000000e+00  -5.6669080017524486e-07 1.3283822307510865e-06 0.0000000000000000e+00  -5.8855771481812137e-07 1.3315405870130380e-06 0.0000000000000000e+00  -5.6672880322723056e-07 1.3315173344732086e-06 0.0000000000000000e+00  -5.8857242089039328e-07 1.3346705158598032e-06 0.0000000000000000e+00  -5.6676500265427261e-07 1.3346490375502506e-06 0.0000000000000000e+00  -5.8858540501275532e-07 1.3377970866206847e-06 0.0000000000000000e+00  -5.6679943333364223e-07 1.3377773456852497e-06 0.0000000000000000e+00  -5.8859670584822247e-07 1.3409203056147920e-06 0.0000000000000000e+00  -5.6683213017293607e-07 1.3409022651302506e-06 0.0000000000000000e+00  -5.8860636214162662e-07 1.3440401797173115e-06 0.0000000000000000e+00  -5.6686312810722876e-07 1.3440238026952736e-06 0.0000000000000000e+00  -5.8861441271745262e-07 1.3471567163685338e-06 0.0000000000000000e+00  -5.6689246209607143e-07 1.3471419657574663e-06 0.0000000000000000e+00  -5.8862089647750917e-07 1.3502699235830630e-06 0.0000000000000000e+00  -5.6692016712032783e-07 1.3502567622704418e-06 0.0000000000000000e+00  -5.8862585239843100e-07 1.3533798099592055e-06 0.0000000000000000e+00  -5.6694627817884484e-07 1.3533682007738026e-06 0.0000000000000000e+00  -5.8862931952900407e-07 1.3564863846885482e-06 0.0000000000000000e+00  -5.6697083028494759e-07 1.3564762904028578e-06 0.0000000000000000e+00  -5.8863133698730078e-07 1.3595896575657218e-06 0.0000000000000000e+00  -5.6699385846275590e-07 1.3595810408985390e-06 0.0000000000000000e+00  -5.8863194395762062e-07 1.3626896389983615e-06 0.0000000000000000e+00  -5.6701539774330845e-07 1.3626824626175078e-06 0.0000000000000000e+00  -5.8863117968722312e-07 1.3657863400172601e-06 0.0000000000000000e+00  -5.6703548316049474e-07 1.3657805665424640e-06 0.0000000000000000e+00  -5.8862908348284341e-07 1.3688797722867165e-06 0.0000000000000000e+00  -5.6705414974677935e-07 1.3688753642926655e-06 0.0000000000000000e+00  -5.8862569470697848e-07 1.3719699481150849e-06 0.0000000000000000e+00  -5.6707143252871168e-07 1.3719668681346484e-06 0.0000000000000000e+00  -5.8862105277393823e-07 1.3750568804655287e-06 0.0000000000000000e+00  -5.6708736652222128e-07 1.3750550909931575e-06 0.0000000000000000e+00  -5.8861519714563718e-07 1.3781405829669769e-06 0.0000000000000000e+00  -5.6710198672767070e-07 1.3781400464622879e-06 0.0000000000000000e+00  -5.8860816732712608e-07 1.3812210699252872e-06 0.0000000000000000e+00  -5.6711532812467812e-07 1.3812217488168446e-06 0.0000000000000000e+00  -5.8860000286184435e-07 1.3842983563346225e-06 0.0000000000000000e+00  -5.6712742566668417e-07 1.3843002130239150e-06 0.0000000000000000e+00  -5.8859074332657689e-07 1.3873724578890335e-06 0.0000000000000000e+00  -5.6713831427525924e-07 1.3873754547546633e-06 0.0000000000000000e+00  -5.8858042832610399e-07 1.3904433909942569e-06 0.0000000000000000e+00  -5.6714802883413876e-07 1.3904474903963462e-06 0.0000000000000000e+00  -5.8856909748752833e-07 1.3935111727797285e-06 0.0000000000000000e+00  -5.6715660418297793e-07 1.3935163370645485e-06 0.0000000000000000e+00  -5.8855679045425681e-07 1.3965758211108090e-06 0.0000000000000000e+00  -5.6716407511080966e-07 1.3965820126156463e-06 0.0000000000000000e+00  -5.8854354687962482e-07 1.3996373546012296e-06 0.0000000000000000e+00  -5.6717047634919886e-07 1.3996445356594937e-06 0.0000000000000000e+00  -5.8852940642014074e-07 1.4026957926257525e-06 0.0000000000000000e+00  -5.6717584256507429e-07 1.4027039255723381e-06 0.0000000000000000e+00  -5.8851440872833327e-07 1.4057511553330492e-06 0.0000000000000000e+00  -5.6718020835323459e-07 1.4057602025099592e-06 0.0000000000000000e+00  -5.8849859344518891e-07 1.4088034636587955e-06 0.0000000000000000e+00  -5.6718360822851783e-07 1.4088133874210363e-06 0.0000000000000000e+00  -5.8848200019801670e-07 1.4118527393389794e-06 0.0000000000000000e+00  -5.6718607662337786e-07 1.4118635020607438e-06 0.0000000000000000e+00  -5.8846466860151633e-07 1.4148990049234224e-06 0.0000000000000000e+00  -5.6718764788869016e-07 1.4149105690045601e-06 0.0000000000000000e+00  -5.8844663823582121e-07 1.4179422837895262e-06 0.0000000000000000e+00  -5.6718835627201346e-07 1.4179546116623135e-06 0.0000000000000000e+00  -5.8842794863450307e-07 1.4209826001562234e-06 0.0000000000000000e+00  -5.6718823590575969e-07 1.4209956542924474e-06 0.0000000000000000e+00  -5.8840863927453688e-07 1.4240199790981427e-06 0.0000000000000000e+00  -5.6718732079741757e-07 1.4240337220165072e-06 0.0000000000000000e+00  -5.8838874956568492e-07 1.4270544465599686e-06 0.0000000000000000e+00  -5.6718564481933048e-07 1.4270688408338412e-06 0.0000000000000000e+00  -5.8836831883926704e-07 1.4300860293710050e-06 0.0000000000000000e+00  -5.6718324169802887e-07 1.4301010376365069e-06 0.0000000000000000e+00  -5.8834738633628997e-07 1.4331147552599207e-06 0.0000000000000000e+00  -5.6718014500308905e-07 1.4331303402243797e-06 0.0000000000000000e+00  -5.8832599119489348e-07 1.4361406528696851e-06 0.0000000000000000e+00  -5.6717638813550817e-07 1.4361567773204568e-06 0.0000000000000000e+00  -5.8830417243707243e-07 1.4391637517726694e-06 0.0000000000000000e+00  -5.6717200431556777e-07 1.4391803785863464e-06 0.0000000000000000e+00  -5.8828196895463860e-07 1.4421840824859104e-06 0.0000000000000000e+00  -5.6716702657017925e-07 1.4422011746379235e-06 0.0000000000000000e+00  -5.8825941949437598e-07 1.4452016764865265e-06 0.0000000000000000e+00  -5.6716148771967868e-07 1.4452191970611598e-06 0.0000000000000000e+00  -5.8823656264234278e-07 1.4482165662272589e-06 0.0000000000000000e+00  -5.6715542036406621e-07 1.4482344784280861e-06 0.0000000000000000e+00  -5.8821343680726546e-07 1.4512287851521331e-06 0.0000000000000000e+00  -5.6714885686865328e-07 1.4512470523128874e-06 0.0000000000000000e+00  -5.8819008020298472e-07 1.4542383677122149e-06 0.0000000000000000e+00  -5.6714182934911643e-07 1.4542569533081085e-06 0.0000000000000000e+00  -5.8816653082987785e-07 1.4572453493814349e-06 0.0000000000000000e+00  -5.6713436965592166e-07 1.4572642170409436e-06 0.0000000000000000e+00  -5.8814282645521483e-07 1.4602497666724583e-06 0.0000000000000000e+00  -5.6712650935810971e-07 1.4602688801895797e-06 0.0000000000000000e+00  -5.8811900459236618e-07 1.4632516571525704e-06 0.0000000000000000e+00  -5.6711827972641129e-07 1.4632709804995747e-06 0.0000000000000000e+00  -5.8809510247881190e-07 1.4662510594595387e-06 0.0000000000000000e+00  -5.6710971171568917e-07 1.4662705568002238e-06 0.0000000000000000e+00  -5.8807115705286090e-07 1.4692480133174157e-06 0.0000000000000000e+00  -5.6710083594666689e-07 1.4692676490208833e-06 0.0000000000000000e+00  -5.8804720492901414e-07 1.4722425595522345e-06 0.0000000000000000e+00  -5.6709168268694133e-07 1.4722622982072036e-06 0.0000000000000000e+00  -5.8802328237187932e-07 1.4752347401075481e-06 0.0000000000000000e+00  -5.6708228183125265e-07 1.4752545465372200e-06 0.0000000000000000e+00  -5.8799942526855513e-07 1.4782245980597478e-06 0.0000000000000000e+00  -5.6707266288099471e-07 1.4782444373372437e-06 0.0000000000000000e+00  -5.8797566909938138e-07 1.4812121776331064e-06 0.0000000000000000e+00  -5.6706285492295121e-07 1.4812320150974940e-06 0.0000000000000000e+00  -5.8795204890695803e-07 1.4841975242144569e-06 0.0000000000000000e+00  -5.6705288660724070e-07 1.4842173254873887e-06 0.0000000000000000e+00  -5.8792859926332655e-07 1.4871806843674278e-06 0.0000000000000000e+00  -5.6704278612446114e-07 1.4872004153704158e-06 0.0000000000000000e+00  -5.8790535423518522e-07 1.4901617058461389e-06 0.0000000000000000e+00  -5.6703258118201325e-07 1.4901813328184907e-06 0.0000000000000000e+00  -5.8788234734703314e-07 1.4931406376082447e-06 0.0000000000000000e+00  -5.6702229897960655e-07 1.4931601271256915e-06 0.0000000000000000e+00  -5.8785961154209541e-07 1.4961175298271989e-06 0.0000000000000000e+00  -5.6701196618393493e-07 1.4961368488212563e-06 0.0000000000000000e+00  -5.8783717914089534e-07 1.4990924339036039e-06 0.0000000000000000e+00  -5.6700160890251916e-07 1.4991115496817051e-06 0.0000000000000000e+00  -5.8781508179732659e-07 1.5020654024754727e-06 0.0000000000000000e+00  -5.6699125265672430e-07 1.5020842827419326e-06 0.0000000000000000e+00  -5.8779335045206395e-07 1.5050364894272365e-06 0.0000000000000000e+00  -5.6698092235395153e-07 1.5050551023051010e-06 0.0000000000000000e+00  -5.8777201528314663e-07 1.5080057498972734e-06 0.0000000000000000e+00  -5.6697064225902580e-07 1.5080240639511453e-06 0.0000000000000000e+00  -5.8775110565355357e-07 1.5109732402837325e-06 0.0000000000000000e+00  -5.6696043596478692e-07 1.5109912245436638e-06 0.0000000000000000e+00  -5.8773065005559237e-07 1.5139390182483775e-06 0.0000000000000000e+00  -5.6695032636192103e-07 1.5139566422349505e-06 0.0000000000000000e+00  -5.8771067605189536e-07 1.5169031427181512e-06 0.0000000000000000e+00  -5.6694033560805861e-07 1.5169203764688989e-06 0.0000000000000000e+00  -5.8769121021282241e-07 1.5198656738841043e-06 0.0000000000000000e+00  -5.6693048509618384e-07 1.5198824879814621e-06 0.0000000000000000e+00  -5.8767227805005565e-07 1.5228266731972970e-06 0.0000000000000000e+00  -5.6692079542241117e-07 1.5228430387983115e-06 0.0000000000000000e+00  -5.8765390394616160e-07 1.5257862033612167e-06 0.0000000000000000e+00  -5.6691128635318192e-07 1.5258020922293143e-06 0.0000000000000000e+00  -5.8763611107989015e-07 1.5287443283201958e-06 0.0000000000000000e+00  -5.6690197679196850e-07 1.5287597128593690e-06 0.0000000000000000e+00  -5.8761892134697553e-07 1.5317011132432405e-06 0.0000000000000000e+00  -5.6689288474556099e-07 1.5317159665351128e-06 0.0000000000000000e+00  -5.8760235527620258e-07 1.5346566245025837e-06 0.0000000000000000e+00  -5.6688402729004483e-07 1.5346709203469196e-06 0.0000000000000000e+00  -5.8758643194049732e-07 1.5376109296462023e-06 0.0000000000000000e+00  -5.6687542053657749e-07 1.5376246426055796e-06 0.0000000000000000e+00  -5.8757116886280662e-07 1.5405640973633962e-06 0.0000000000000000e+00  -5.6686707959708892e-07 1.5405772028129280e-06 0.0000000000000000e+00  -5.8755658191654528e-07 1.5435161974424101e-06 0.0000000000000000e+00  -5.6685901855005178e-07 1.5435286716256228e-06 0.0000000000000000e+00  -5.8754268522039800e-07 1.5464673007189299e-06 0.0000000000000000e+00  -5.6685125040646740e-07 1.5464791208111829e-06 0.0000000000000000e+00  -5.8752949102728995e-07 1.5494174790140890e-06 0.0000000000000000e+00  -5.6684378707622686e-07 1.5494286231952651e-06 0.0000000000000000e+00  -5.8751700960738209e-07 1.5523668050604289e-06 0.0000000000000000e+00  -5.6683663933502477e-07 1.5523772525990423e-06 0.0000000000000000e+00  -5.8750524912498095e-07 1.5553153524139998e-06 0.0000000000000000e+00  -5.6682981679197842e-07 1.5553250837654069e-06 0.0000000000000000e+00  -5.8749421550934036e-07 1.5582631953505155e-06 0.0000000000000000e+00  -5.6682332785813759e-07 1.5582721922725798e-06 0.0000000000000000e+00  -5.8748391231939121e-07 1.5612104087431194e-06 0.0000000000000000e+00  -5.6681717971600963e-07 1.5612186544335090e-06 0.0000000000000000e+00  -5.8747434060257889e-07 1.5641570679189346e-06 0.0000000000000000e+00  -5.6681137829023542e-07 1.5641645471792701e-06 0.0000000000000000e+00  -5.8746549874811218e-07 1.5671032484911001e-06 0.0000000000000000e+00  -5.6680592821947982e-07 1.5671099479244680e-06 0.0000000000000000e+00  -5.8745738233512327e-07 1.5700490261624039e-06 0.0000000000000000e+00  -5.6680083282953194e-07 1.5700549344124030e-06 0.0000000000000000e+00  -5.8744998397647718e-07 1.5729944764959862e-06 0.0000000000000000e+00  -5.6679609410750705e-07 1.5729995845375195e-06 0.0000000000000000e+00  -5.8744329315925850e-07 1.5759396746477495e-06 0.0000000000000000e+00  -5.6679171267688502e-07 1.5759439761423762e-06 0.0000000000000000e+00  -5.8743729608334980e-07 1.5788846950541469e-06 0.0000000000000000e+00  -5.6678768777291559e-07 1.5788881867860923e-06 0.0000000000000000e+00  -5.8743197549997700e-07 1.5818296110678257e-06 0.0000000000000000e+00  -5.6678401721762930e-07 1.5818322934809116e-06 0.0000000000000000e+00  -5.8742731055267941e-07 1.5847744945321483e-06 0.0000000000000000e+00  -5.6678069739331560e-07 1.5847763723932123e-06 0.0000000000000000e+00  -5.8742327662389549e-07 1.5877194152838563e-06 0.0000000000000000e+00  -5.6677772321280707e-07 1.5877204985049571e-06 0.0000000000000000e+00  -5.8741984519124254e-07 1.5906644405709053e-06 0.0000000000000000e+00  -5.6677508808422808e-07 1.5906647452312938e-06 0.0000000000000000e+00  -5.8741698369870092e-07 1.5936096343698018e-06 0.0000000000000000e+00  -5.6677278386698001e-07 1.5936091839897095e-06 0.0000000000000000e+00  -5.8741465544926372e-07 1.5965550565833157e-06 0.0000000000000000e+00  -5.6677080081452433e-07 1.5965538837159533e-06 0.0000000000000000e+00  -5.8741281952733264e-07 1.5995007620951482e-06 0.0000000000000000e+00  -5.6676912749800534e-07 1.5994989103218193e-06 0.0000000000000000e+00  -5.8741143076123078e-07 1.6024467996526511e-06 0.0000000000000000e+00  -5.6676775070271010e-07 1.6024443260899475e-06 0.0000000000000000e+00  -5.8741043973877573e-07 1.6053932105416965e-06 0.0000000000000000e+00  -5.6676665528671470e-07 1.6053901890011306e-06 0.0000000000000000e+00  -5.8740979289205532e-07 1.6083400270088106e-06 0.0000000000000000e+00  -5.667658239