<?xml version="1.0"?>
<VTKFile type="UnstructuredGrid"  version="0.1"  >
<UnstructuredGrid>
<Piece  NumberOfPoints="8462" NumberOfCells="16533">
<Points>
<DataArray  type="Float64"  NumberOfComponents="3"  format="ascii">0.46875 0.9999999999999998 0  0.470703125 0.9999999999999999 0  0.470703125 0.9863281249999999 0  0.47265625 0.9999999999999999 0  0.47265625 0.9863281249999999 0  0.474609375 0.9999999999999998 0  0.474609375 0.9863281249999998 0  0.4765625 0.9999999999999999 0  0.4765625 0.9863281249999999 0  0.478515625 1 0  0.478515625 0.986328125 0  0.48046875 0.9999999999999999 0  0.48046875 0.9863281249999999 0  0.482421875 0.9999999999999999 0  0.482421875 0.9863281249999999 0  0.484375 1 0  0.484375 0.986328125 0  0.486328125 0.9999999999999999 0  0.486328125 0.9863281249999999 0  0.48828125 0.9999999999999999 0  0.48828125 0.9863281249999999 0  0.490234375 1 0  0.490234375 0.986328125 0  0.4921875 1 0  0.4921875 0.986328125 0  0.494140625 0.9999999999999999 0  0.494140625 0.9863281249999999 0  0.49609375 1 0  0.49609375 0.986328125 0  0.498046875 1 0  0.498046875 0.986328125 0  0.5 1 0  0.5 0.986328125 0  0.501953125 1 0  0.501953125 0.9863281250000002 0  0.50390625 1 0  0.50390625 0.986328125 0  0.505859375 1 0  0.505859375 0.986328125 0  0.5078125 1 0  0.5078125 0.9863281250000002 0  0.509765625 1 0  0.509765625 0.986328125 0  0.51171875 1 0  0.51171875 0.9863281250000002 0  0.513671875 1 0  0.513671875 0.9863281250000002 0  0.515625 1 0  0.515625 0.986328125 0  0.517578125 1 0  0.517578125 0.9863281250000002 0  0.51953125 1 0  0.51953125 0.986328125 0  0.521484375 1 0  0.521484375 0.986328125 0  0.5234375 0.9999999999999999 0  0.5234375 0.9863281249999999 0  0.525390625 0.9999999999999999 0  0.525390625 0.9863281249999999 0  0.52734375 0.9999999999999998 0  0.52734375 0.9863281249999998 0  0.529296875 0.9999999999999999 0  0.529296875 0.9863281249999999 0  0.53125 0.9999999999999999 0  0.53125 0.9863281249999999 0  0.533203125 0.9999999999999999 0  0.533203125 0.9863281249999999 0  0.53515625 0.9999999999999999 0  0.53515625 0.9863281249999999 0  0.537109375 0.9999999999999999 0  0.537109375 0.9863281249999999 0  0.5390625 1 0  0.5390625 0.986328125 0  0.541015625 0.9999999999999999 0  0.541015625 0.9863281249999999 0  0.54296875 1 0  0.54296875 0.986328125 0  0.544921875 1 0  0.544921875 0.986328125 0  0.546875 1 0  0.546875 0.986328125 0  0.548828125 1 0  0.548828125 0.986328125 0  0.55078125 1 0  0.55078125 0.986328125 0  0.552734375 1 0  0.552734375 0.986328125 0  0.5546875 1 0  0.5546875 0.986328125 0  0.556640625 1 0  0.556640625 0.986328125 0  0.55859375 1 0  0.55859375 0.986328125 0  0.560546875 1 0  0.560546875 0.986328125 0  0.5625 0.9999999999999999 0  0.5625 0.9863281249999999 0  0.564453125 1 0  0.564453125 0.986328125 0  0.56640625 1 0  0.56640625 0.986328125 0  0.568359375 1 0  0.568359375 0.986328125 0  0.5703125 1 0  0.5703125 0.986328125 0  0.572265625 1 0  0.572265625 0.9863281250000002 0  0.57421875 1 0  0.57421875 0.986328125 0  0.576171875 1 0  0.576171875 0.986328125 0  0.578125 1 0  0.578125 0.9863281250000002 0  0.580078125 1 0  0.580078125 0.986328125 0  0.58203125 1 0  0.58203125 0.986328125 0  0.583984375 1 0  0.583984375 0.9863281250000002 0  0.5859375 1 0  0.5859375 0.986328125 0  0.587890625 1 0  0.587890625 0.9863281250000002 0  0.58984375 0.9999999999999999 0  0.58984375 0.9863281249999999 0  0.591796875 0.9999999999999999 0  0.591796875 0.9863281249999999 0  0.59375 0.9999999999999999 0  0.59375 0.9863281249999999 0  0.595703125 0.9999999999999999 0  0.595703125 0.9863281249999999 0  0.59765625 0.9999999999999999 0  0.59765625 0.9863281249999999 0  0.599609375 0.9999999999999999 0  0.599609375 0.9863281249999999 0  0.6015625 0.9999999999999999 0  0.6015625 0.9863281249999999 0  0.603515625 1 0  0.603515625 0.986328125 0  0.60546875 1 0  0.60546875 0.986328125 0  0.607421875 1 0  0.607421875 0.986328125 0  0.609375 1 0  0.609375 0.986328125 0  0.611328125 0.9999999999999999 0  0.611328125 0.9863281249999999 0  0.61328125 1 0  0.61328125 0.986328125 0  0.615234375 1 0  0.615234375 0.986328125 0  0.6171875 0.9999999999999999 0  0.6171875 0.9863281249999999 0  0.619140625 1 0  0.619140625 0.986328125 0  0.62109375 1 0  0.62109375 0.986328125 0  0.623046875 0.9999999999999999 0  0.623046875 0.9863281249999999 0  0.625 1 0  0.625 0.986328125 0  0.626953125 1 0  0.626953125 0.986328125 0  0.62890625 1 0  0.62890625 0.986328125 0  0.630859375 1 0  0.630859375 0.986328125 0  0.6328125 1 0  0.6328125 0.986328125 0  0.634765625 0.9999999999999999 0  0.634765625 0.9863281249999999 0  0.63671875 0.9999999999999999 0  0.63671875 0.9863281249999999 0  0.638671875 0.9999999999999999 0  0.638671875 0.9863281249999999 0  0.640625 1 0  0.640625 0.986328125 0  0.642578125 0.9999999999999999 0  0.642578125 0.9863281249999999 0  0.64453125 0.9999999999999999 0  0.64453125 0.9863281249999999 0  0.646484375 1 0  0.646484375 0.986328125 0  0.6484375 0.9999999999999999 0  0.6484375 0.9863281249999999 0  0.650390625 0.9999999999999999 0  0.650390625 0.9863281249999999 0  0.65234375 1 0  0.65234375 0.986328125 0  0.654296875 0.9999999999999999 0  0.654296875 0.9863281249999999 0  0.65625 1 0  0.65625 0.986328125 0  0.658203125 1 0  0.658203125 0.986328125 0  0.66015625 0.9999999999999999 0  0.66015625 0.9863281249999999 0  0.662109375 1 0  0.662109375 0.9863281250000002 0  0.6640625 1 0  0.6640625 0.986328125 0  0.666015625 1 0  0.666015625 0.986328125 0  0.66796875 1 0  0.66796875 0.9863281250000002 0  0.669921875 1 0  0.669921875 0.986328125 0  0.671875 1 0  0.671875 0.986328125 0  0.673828125 0.9999999999999999 0  0.673828125 0.9863281249999999 0  0.67578125 1 0  0.67578125 0.986328125 0  0.677734375 0.9999999999999999 0  0.677734375 0.9863281249999999 0  0.6796875 1 0  0.6796875 0.986328125 0  0.681640625 1 0  0.681640625 0.986328125 0  0.68359375 0.9999999999999999 0  0.68359375 0.9863281249999999 0  0.685546875 1 0  0.685546875 0.986328125 0  0.6875 1 0  0.6875 0.986328125 0  0.689453125 1 0  0.689453125 0.986328125 0  0.69140625 1 0  0.69140625 0.986328125 0  0.693359375 0.9999999999999999 0  0.693359375 0.9863281249999999 0  0.6953125 0.9999999999999999 0  0.6953125 0.9863281249999999 0  0.697265625 1 0  0.697265625 0.986328125 0  0.69921875 1 0  0.69921875 0.9863281250000002 0  0.701171875 0.9999999999999999 0  0.701171875 0.9863281249999999 0  0.703125 1 0  0.703125 0.986328125 0  0.705078125 1 0  0.705078125 0.986328125 0  0.70703125 1 0  0.70703125 0.986328125 0  0.708984375 1 0  0.708984375 0.986328125 0  0.7109375 1 0  0.7109375 0.986328125 0  0.712890625 1 0  0.712890625 0.986328125 0  0.71484375 0.9999999999999999 0  0.71484375 0.9863281249999999 0  0.716796875 0.9863281249999999 0  0.47265625 0.9726562499999999 0  0.474609375 0.9726562499999998 0  0.4765625 0.9726562499999999 0  0.478515625 0.97265625 0  0.48046875 0.9726562499999999 0  0.482421875 0.9726562499999999 0  0.484375 0.97265625 0  0.486328125 0.9726562499999999 0  0.48828125 0.9726562499999999 0  0.490234375 0.97265625 0  0.4921875 0.97265625 0  0.494140625 0.9726562499999999 0  0.49609375 0.97265625 0  0.498046875 0.97265625 0  0.5 0.97265625 0  0.501953125 0.9726562500000002 0  0.50390625 0.97265625 0  0.505859375 0.97265625 0  0.5078125 0.9726562500000002 0  0.509765625 0.97265625 0  0.51171875 0.9726562500000002 0  0.513671875 0.9726562500000002 0  0.515625 0.97265625 0  0.517578125 0.9726562500000002 0  0.51953125 0.97265625 0  0.521484375 0.97265625 0  0.5234375 0.9726562499999999 0  0.525390625 0.9726562499999999 0  0.52734375 0.9726562499999998 0  0.529296875 0.9726562499999999 0  0.53125 0.9726562499999999 0  0.533203125 0.9726562499999999 0  0.53515625 0.9726562499999999 0  0.537109375 0.9726562499999999 0  0.5390625 0.97265625 0  0.541015625 0.9726562499999999 0  0.54296875 0.97265625 0  0.544921875 0.97265625 0  0.546875 0.97265625 0  0.548828125 0.97265625 0  0.55078125 0.97265625 0  0.552734375 0.97265625 0  0.5546875 0.97265625 0  0.556640625 0.97265625 0  0.55859375 0.97265625 0  0.560546875 0.97265625 0  0.5625 0.9726562499999999 0  0.564453125 0.97265625 0  0.56640625 0.97265625 0  0.568359375 0.97265625 0  0.5703125 0.97265625 0  0.572265625 0.9726562500000002 0  0.57421875 0.97265625 0  0.576171875 0.97265625 0  0.578125 0.9726562500000002 0  0.580078125 0.97265625 0  0.58203125 0.97265625 0  0.583984375 0.9726562500000002 0  0.5859375 0.97265625 0  0.587890625 0.9726562500000002 0  0.58984375 0.9726562499999999 0  0.591796875 0.9726562499999999 0  0.59375 0.9726562499999999 0  0.595703125 0.9726562499999999 0  0.59765625 0.9726562499999999 0  0.599609375 0.9726562499999999 0  0.6015625 0.9726562499999999 0  0.603515625 0.97265625 0  0.60546875 0.97265625 0  0.607421875 0.97265625 0  0.609375 0.97265625 0  0.611328125 0.9726562499999999 0  0.61328125 0.97265625 0  0.615234375 0.97265625 0  0.6171875 0.9726562499999999 0  0.619140625 0.97265625 0  0.62109375 0.97265625 0  0.623046875 0.9726562499999999 0  0.625 0.97265625 0  0.626953125 0.97265625 0  0.62890625 0.97265625 0  0.630859375 0.97265625 0  0.6328125 0.97265625 0  0.634765625 0.9726562499999999 0  0.63671875 0.9726562499999999 0  0.638671875 0.9726562499999999 0  0.640625 0.97265625 0  0.642578125 0.9726562499999999 0  0.64453125 0.9726562499999999 0  0.646484375 0.97265625 0  0.6484375 0.9726562499999999 0  0.650390625 0.9726562499999999 0  0.65234375 0.97265625 0  0.654296875 0.9726562499999999 0  0.65625 0.97265625 0  0.658203125 0.97265625 0  0.66015625 0.9726562499999999 0  0.662109375 0.9726562500000002 0  0.6640625 0.97265625 0  0.666015625 0.97265625 0  0.66796875 0.9726562500000002 0  0.669921875 0.97265625 0  0.671875 0.97265625 0  0.673828125 0.9726562499999999 0  0.67578125 0.97265625 0  0.677734375 0.9726562499999999 0  0.6796875 0.97265625 0  0.681640625 0.97265625 0  0.68359375 0.9726562499999999 0  0.685546875 0.97265625 0  0.6875 0.97265625 0  0.689453125 0.97265625 0  0.69140625 0.97265625 0  0.693359375 0.972656249
[...]
<PointData  Vectors="f_13"> 
<DataArray  type="Float64"  Name="f_13"  NumberOfComponents="3" format="ascii">-5.2873522333579022e-07 7.4446132925843117e-07 0.0000000000000000e+00  -5.2956356216746820e-07 7.4797337271339354e-07 0.0000000000000000e+00  -5.0536371318790996e-07 7.4715167297235829e-07 0.0000000000000000e+00  -5.3038458735635780e-07 7.5148546039496629e-07 0.0000000000000000e+00  -5.0618301505247319e-07 7.5067093634987712e-07 0.0000000000000000e+00  -5.3119832811263300e-07 7.5499755728696270e-07 0.0000000000000000e+00  -5.0699527799027479e-07 7.5419018031919756e-07 0.0000000000000000e+00  -5.3200481363044561e-07 7.5850962850312763e-07 0.0000000000000000e+00  -5.0780053022156291e-07 7.5770937000877650e-07 0.0000000000000000e+00  -5.3280407308911788e-07 7.6202163928751084e-07 0.0000000000000000e+00  -5.0859879995014150e-07 7.6122847067626608e-07 0.0000000000000000e+00  -5.3359613565431730e-07 7.6553355501484720e-07 0.0000000000000000e+00  -5.0939011536449075e-07 7.6474744770891355e-07 0.0000000000000000e+00  -5.3438103047921464e-07 7.6904534119093818e-07 0.0000000000000000e+00  -5.1017450463886777e-07 7.6826626662395935e-07 0.0000000000000000e+00  -5.3515878670561812e-07 7.7255696345303893e-07 0.0000000000000000e+00  -5.1095199593438543e-07 7.7178489306904145e-07 0.0000000000000000e+00  -5.3592943346509443e-07 7.7606838757024679e-07 0.0000000000000000e+00  -5.1172261740007875e-07 7.7530329282259964e-07 0.0000000000000000e+00  -5.3669299988007221e-07 7.7957957944389540e-07 0.0000000000000000e+00  -5.1248639717395194e-07 7.7882143179428713e-07 0.0000000000000000e+00  -5.3744951506492738e-07 7.8309050510795248e-07 0.0000000000000000e+00  -5.1324336338400851e-07 7.8233927602538227e-07 0.0000000000000000e+00  -5.3819900812705292e-07 7.8660113072942167e-07 0.0000000000000000e+00  -5.1399354414926558e-07 7.8585679168920618e-07 0.0000000000000000e+00  -5.3894150816791237e-07 7.9011142260874458e-07 0.0000000000000000e+00  -5.1473696758075361e-07 7.8937394509153901e-07 0.0000000000000000e+00  -5.3967704428408177e-07 7.9362134718021362e-07 0.0000000000000000e+00  -5.1547366178250062e-07 7.9289070267104788e-07 0.0000000000000000e+00  -5.4040564556827248e-07 7.9713087101238492e-07 0.0000000000000000e+00  -5.1620365485249975e-07 7.9640703099971031e-07 0.0000000000000000e+00  -5.4112734111034295e-07 8.0063996080849423e-07 0.0000000000000000e+00  -5.1692697488366584e-07 7.9992289678324798e-07 0.0000000000000000e+00  -5.4184215999829650e-07 8.0414858340688171e-07 0.0000000000000000e+00  -5.1764364996477674e-07 8.0343826686156105e-07 0.0000000000000000e+00  -5.4255013131926328e-07 8.0765670578141646e-07 0.0000000000000000e+00  -5.1835370818139855e-07 8.0695310820916516e-07 0.0000000000000000e+00  -5.4325128416047648e-07 8.1116429504192922e-07 0.0000000000000000e+00  -5.1905717761680486e-07 8.1046738793563702e-07 0.0000000000000000e+00  -5.4394564761022782e-07 8.1467131843464950e-07 0.0000000000000000e+00  -5.1975408635287507e-07 8.1398107328606083e-07 0.0000000000000000e+00  -5.4463325075881559e-07 8.1817774334264304e-07 0.0000000000000000e+00  -5.2044446247098532e-07 8.1749413164148124e-07 0.0000000000000000e+00  -5.4531412269948561e-07 8.2168353728626262e-07 0.0000000000000000e+00  -5.2112833405289038e-07 8.2100653051935923e-07 0.0000000000000000e+00  -5.4598829252935052e-07 8.2518866792359469e-07 0.0000000000000000e+00  -5.2180572918158433e-07 8.2451823757403379e-07 0.0000000000000000e+00  -5.4665578935031019e-07 8.2869310305091830e-07 0.0000000000000000e+00  -5.2247667594216328e-07 8.2802922059718794e-07 0.0000000000000000e+00  -5.4731664226995602e-07 8.3219681060316647e-07 0.0000000000000000e+00  -5.2314120242266783e-07 8.3153944751832206e-07 0.0000000000000000e+00  -5.4797088040246317e-07 8.3569975865439475e-07 0.0000000000000000e+00  -5.2379933671491496e-07 8.3504888640522875e-07 0.0000000000000000e+00  -5.4861853286948294e-07 8.3920191541825281e-07 0.0000000000000000e+00  -5.2445110691532900e-07 8.3855750546447455e-07 0.0000000000000000e+00  -5.4925962880101509e-07 8.4270324924846507e-07 0.0000000000000000e+00  -5.2509654112575285e-07 8.4206527304188967e-07 0.0000000000000000e+00  -5.4989419733628048e-07 8.4620372863931497e-07 0.0000000000000000e+00  -5.2573566745425646e-07 8.4557215762305923e-07 0.0000000000000000e+00  -5.5052226762457949e-07 8.4970332222613786e-07 0.0000000000000000e+00  -5.2636851401593330e-07 8.4907812783382475e-07 0.0000000000000000e+00  -5.5114386882614840e-07 8.5320199878581850e-07 0.0000000000000000e+00  -5.2699510893368901e-07 8.5258315244078914e-07 0.0000000000000000e+00  -5.5175903011300202e-07 8.5669972723729538e-07 0.0000000000000000e+00  -5.2761548033902226e-07 8.5608720035182720e-07 0.0000000000000000e+00  -5.5236778066977532e-07 8.6019647664207264e-07 0.0000000000000000e+00  -5.2822965637279570e-07 8.5959024061660722e-07 0.0000000000000000e+00  -5.5297014969455470e-07 8.6369221620473858e-07 0.0000000000000000e+00  -5.2883766518600289e-07 8.6309224242711135e-07 0.0000000000000000e+00  -5.5356616639970401e-07 8.6718691527349159e-07 0.0000000000000000e+00  -5.2943953494052380e-07 8.6659317511817212e-07 0.0000000000000000e+00  -5.5415586001268474e-07 8.7068054334067413e-07 0.0000000000000000e+00  -5.3003529380987597e-07 8.7009300816800939e-07 0.0000000000000000e+00  -5.5473925977686894e-07 8.7417307004331310e-07 0.0000000000000000e+00  -5.3062496997995581e-07 8.7359171119877808e-07 0.0000000000000000e+00  -5.5531639495235077e-07 8.7766446516366819e-07 0.0000000000000000e+00  -5.3120859164977806e-07 8.7708925397712145e-07 0.0000000000000000e+00  -5.5588729481674687e-07 8.8115469862979040e-07 0.0000000000000000e+00  -5.3178618703220283e-07 8.8058560641473387e-07 0.0000000000000000e+00  -5.5645198866599818e-07 8.8464374051608492e-07 0.0000000000000000e+00  -5.3235778435466248e-07 8.8408073856893111e-07 0.0000000000000000e+00  -5.5701050581516239e-07 8.8813156104388832e-07 0.0000000000000000e+00  -5.3292341185987844e-07 8.8757462064322912e-07 0.0000000000000000e+00  -5.5756287559920495e-07 8.9161813058204852e-07 0.0000000000000000e+00  -5.3348309780657362e-07 8.9106722298792960e-07 0.0000000000000000e+00  -5.5810912737378587e-07 8.9510341964751850e-07 0.0000000000000000e+00  -5.3403687047018133e-07 8.9455851610071767e-07 0.0000000000000000e+00  -5.5864929051604149e-07 8.9858739890595615e-07 0.0000000000000000e+00  -5.3458475814354637e-07 8.9804847062726621e-07 0.0000000000000000e+00  -5.5918339442536437e-07 9.0207003917233644e-07 0.0000000000000000e+00  -5.3512678913762237e-07 9.0153705736185028e-07 0.0000000000000000e+00  -5.5971146852417925e-07 9.0555131141156997e-07 0.0000000000000000e+00  -5.3566299178216422e-07 9.0502424724797005e-07 0.0000000000000000e+00  -5.6023354225871623e-07 9.0903118673913593e-07 0.0000000000000000e+00  -5.3619339442641705e-07 9.0851001137898728e-07 0.0000000000000000e+00  -5.6074964509978119e-07 9.1250963642172199e-07 0.0000000000000000e+00  -5.3671802543979924e-07 9.1199432099876614e-07 0.0000000000000000e+00  -5.6125980654352518e-07 9.1598663187787701e-07 0.0000000000000000e+00  -5.3723691321258291e-07 9.1547714750233126e-07 0.0000000000000000e+00  -5.6176405611220901e-07 9.1946214467867302e-07 0.0000000000000000e+00  -5.3775008615656795e-07 9.1895846243652912e-07 0.0000000000000000e+00  -5.6226242335496902e-07 9.2293614654837974e-07 0.0000000000000000e+00  -5.3825757270575636e-07 9.2243823750070823e-07 0.0000000000000000e+00  -5.6275493784857788e-07 9.2640860936515064e-07 0.0000000000000000e+00  -5.3875940131701991e-07 9.2591644454740546e-07 0.0000000000000000e+00  -5.6324162919820834e-07 9.2987950516172100e-07 0.0000000000000000e+00  -5.3925560047076593e-07 9.2939305558304534e-07 0.0000000000000000e+00  -5.6372252703818941e-07 9.3334880612611657e-07 0.0000000000000000e+00  -5.3974619867159704e-07 9.3286804276865276e-07 0.0000000000000000e+00  -5.6419766103276929e-07 9.3681648460237770e-07 0.0000000000000000e+00  -5.4023122444897448e-07 9.3634137842057452e-07 0.0000000000000000e+00  -5.6466706087687044e-07 9.4028251309129322e-07 0.0000000000000000e+00  -5.4071070635787062e-07 9.3981303501121985e-07 0.0000000000000000e+00  -5.6513075629684658e-07 9.4374686425114995e-07 0.0000000000000000e+00  -5.4118467297942228e-07 9.4328298516980760e-07 0.0000000000000000e+00  -5.6558877705124293e-07 9.4720951089849421e-07 0.0000000000000000e+00  -5.4165315292158512e-07 9.4675120168312984e-07 0.0000000000000000e+00  -5.6604115293154931e-07 9.5067042600890850e-07 0.0000000000000000e+00  -5.4211617481977848e-07 9.5021765749632914e-07 0.0000000000000000e+00  -5.6648791376295729e-07 9.5412958271780224e-07 0.0000000000000000e+00  -5.4257376733753112e-07 9.5368232571368901e-07 0.0000000000000000e+00  -5.6692908940512028e-07 9.5758695432121549e-07 0.0000000000000000e+00  -5.4302595916712994e-07 9.5714517959944098e-07 0.0000000000000000e+00  -5.6736470975290414e-07 9.6104251427664037e-07 0.0000000000000000e+00  -5.4347277903025422e-07 9.6060619257858404e-07 0.0000000000000000e+00  -5.6779480473715095e-07 9.6449623620385557e-07 0.0000000000000000e+00  -5.4391425567862271e-07 9.6406533823772028e-07 0.0000000000000000e+00  -5.6821940432543228e-07 9.6794809388577766e-07 0.0000000000000000e+00  -5.4435041789462630e-07 9.6752259032590720e-07 0.0000000000000000e+00  -5.6863853852281010e-07 9.7139806126932893e-07 0.0000000000000000e+00  -5.4478129449196634e-07 9.7097792275552380e-07 0.0000000000000000e+00  -5.6905223737259512e-07 9.7484611246632250e-07 0.0000000000000000e+00  -5.4520691431628896e-07 9.7443130960315639e-07 0.0000000000000000e+00  -5.6946053095710814e-07 9.7829222175436232e-07 0.0000000000000000e+00  -5.4562730624581740e-07 9.7788272511049852e-07 0.0000000000000000e+00  -5.6986344939844071e-07 9.8173636357776132e-07 0.0000000000000000e+00  -5.4604249919198356e-07 9.8133214368526898e-07 0.0000000000000000e+00  -5.7026102285921903e-07 9.8517851254847870e-07 0.0000000000000000e+00  -5.4645252210005822e-07 9.8477953990214904e-07 0.0000000000000000e+00  -5.7065328154336616e-07 9.8861864344707428e-07 0.0000000000000000e+00  -5.4685740394977801e-07 9.8822488850373620e-07 0.0000000000000000e+00  -5.7104025569687045e-07 9.9205673122368177e-07 0.0000000000000000e+00  -5.4725717375597310e-07 9.9166816440151511e-07 0.0000000000000000e+00  -5.7142197560855064e-07 9.9549275099900209e-07 0.0000000000000000e+00  -5.4765186056919463e-07 9.9510934267685388e-07 0.0000000000000000e+00  -5.7179847161082609e-07 9.9892667806531712e-07 0.0000000000000000e+00  -5.4804149347633696e-07 9.9854839858201250e-07 0.0000000000000000e+00  -5.7216977408048734e-07 1.0023584878875182e-06 0.0000000000000000e+00  -5.4842610160126214e-07 1.0019853075411756e-06 0.0000000000000000e+00  -5.7253591343946681e-07 1.0057881561041634e-06 0.0000000000000000e+00  -5.4880571410542079e-07 1.0054200451515047e-06 0.0000000000000000e+00  -5.7289692015561721e-07 1.0092156585285501e-06 0.0000000000000000e+00  -5.4918036018847519e-07 1.0088525871842117e-06 0.0000000000000000e+00  -5.7325282474348587e-07 1.0126409711498112e-06 0.0000000000000000e+00  -5.4955006908891774e-07 1.0122829095856544e-06 0.0000000000000000e+00  -5.7360365776509207e-07 1.0160640701340334e-06 0.0000000000000000e+00  -5.4991487008468875e-07 1.0157109884784526e-06 0.0000000000000000e+00  -5.7394944983071109e-07 1.0194849318253974e-06 0.0000000000000000e+00  -5.5027479249379510e-07 1.0191368001626297e-06 0.0000000000000000e+00  -5.7429023159965537e-07 1.0229035327473432e-06 0.0000000000000000e+00  -5.5062986567492738e-07 1.0225603211167742e-06 0.0000000000000000e+00  -5.7462603378105963e-07 1.0263198496037574e-06 0.0000000000000000e+00  -5.5098011902807245e-07 1.0259815279992255e-06 0.0000000000000000e+00  -5.7495688713466934e-07 1.0297338592801834e-06 0.0000000000000000e+00  -5.5132558199512942e-07 1.0294003976492879e-06 0.0000000000000000e+00  -5.7528282247163024e-07 1.0331455388450618e-06 0.0000000000000000e+00  -5.5166628406052149e-07 1.0328169070884642e-06 0.0000000000000000e+00  -5.7560387065528078e-07 1.0365548655509888e-06 0.0000000000000000e+00  -5.5200225475180791e-07 1.0362310335217170e-06 0.0000000000000000e+00  -5.7592006260194693e-07 1.0399618168360086e-06 0.0000000000000000e+00  -5.5233352364029300e-07 1.0396427543387569e-06 0.0000000000000000e+00  -5.7623142928173943e-07 1.0433663703249257e-06 0.0000000000000000e+00  -5.5266012034163558e-07 1.0430520471153543e-06 0.0000000000000000e+00  -5.7653800171935120e-07 1.0467685038306474e-06 0.0000000000000000e+00  -5.5298207451645539e-07 1.0464588896146860e-06 0.0000000000000000e+00  -5.7683981099486192e-07 1.0501681953555551e-06 0.0000000000000000e+00  -5.5329941587093935e-07 1.0498632597886981e-06 0.0000000000000000e+00  -5.7713688824453919e-07 1.0535654230929015e-06 0.0000000000000000e+00  -5.5361217415744393e-07 1.0532651357795054e-06 0.0000000000000000e+00  -5.7742926466164764e-07 1.0569601654282393e-06 0.0000000000000000e+00  -5.5392037917509984e-07 1.0566644959208210e-06 0.0000000000000000e+00  -5.7771697149725518e-07 1.0603524009408774e-06 0.0000000000000000e+00  -5.5422406077040966e-07 1.0600613187394097e-06 0.0000000000000000e+00  -5.7800004006104476e-07 1.0637421084053702e-06 0.0000000000000000e+00  -5.5452324883784687e-07 1.0634555829565758e-06 0.0000000000000000e+00  -5.7827850172212722e-07 1.0671292667930348e-06 0.0000000000000000e+00  -5.5481797332045347e-07 1.0668472674896826e-06 0.0000000000000000e+00  -5.7855238790985678e-07 1.0705138552735043e-06 0.0000000000000000e+00  -5.5510826421043136e-07 1.0702363514537011e-06 0.0000000000000000e+00  -5.7882173011464656e-07 1.0738958532163084e-06 0.0000000000000000e+00  -5.5539415154973409e-07 1.0736228141627927e-06 0.0000000000000000e+00  -5.7908655988878949e-07 1.0772752401924923e-06 0.0000000000000000e+00  -5.5567566543065840e-07 1.0770066351319297e-06 0.0000000000000000e+00  -5.7934690884727733e-07 1.0806519959762672e-06 0.0000000000000000e+00  -5.5595283599642601e-07 1.0803877940785378e-06 0.0000000000000000e+00  -5.7960280866862425e-07 1.0840261005466915e-06 0.0000000000000000e+00  -5.5622569344177045e-07 1.0837662709241868e-06 0.0000000000000000e+00  -5.7985429109569074e-07 1.0873975340893958e-06 0.0000000000000000e+00  -5.5649426801351446e-07 1.0871420457963119e-06 0.0000000000000000e+00  -5.8010138793650706e-07 1.0907662769983394e-06 0.0000000000000000e+00  -5.5675859001114498e-07 1.0905150990299666e-06 0.0000000000000000e+00  -5.8034413106510483e-07 1.0941323098776041e-06 0.0000000000000000e+00  -5.5701868978739098e-07 1.0938854111696215e-06 0.0000000000000000e+00  -5.8058255242234018e-07 1.0974956135432248e-06 0.0000000000000000e+00  -5.5727459774878868e-07 1.0972529629709940e-06 0.0000000000000000e+00  -5.8081668401672411e-07 1.1008561690250627e-06 0.0000000000000000e+00  -5.5752634435624545e-07 1.1006177354029217e-06 0.0000000000000000e+00  -5.8104655792525457e-07 1.1042139575687124e-06 0.0000000000000000e+00  -5.5777396012560436e-07 1.1039797096492710e-06 0.0000000000000000e+00  -5.8127220629424318e-07 1.1075689606374554e-06 0.0000000000000000e+00  -5.5801747562819496e-07 1.1073388671108913e-06 0.0000000000000000e+00  -5.8149366134014804e-07 1.1109211599142501e-06 0.0000000000000000e+00  -5.5825692149138798e-07 1.1106951894076065e-06 0.0000000000000000e+00  -5.8171095535040399e-07 1.1142705373037657e-06 0.0000000000000000e+00  -5.5849232839913785e-07 1.1140486583802517e-06 0.0000000000000000e+00  -5.8192412068425410e-07 1.1176170749344614e-06 0.0000000000000000e+00  -5.5872372709252473e-07 1.1173992560927503e-06 0.0000000000000000e+00  -5.8213318977357858e-07 1.1209607551607052e-06 0.0000000000000000e+00  -5.5895114837028521e-07 1.1207469648342394e-06 0.0000000000000000e+00  -5.8233819512372618e-07 1.1243015605649402e-06 0.0000000000000000e+00  -5.5917462308934296e-07 1.1240917671212369e-06 0.0000000000000000e+00  -5.8253916931434285e-07 1.1276394739598973e-06 0.0000000000000000e+00  -5.5939418216532734e-07 1.1274336456998571e-06 0.0000000000000000e+00  -5.8273614500019745e-07 1.1309744783908543e-06 0.0000000000000000e+00  -5.5960985657308584e-07 1.1307725835480708e-06 0.0000000000000000e+00  -5.8292915491201048e-07 1.1343065571379409e-06 0.0000000000000000e+00  -5.5982167734719202e-07 1.1341085638780169e-06 0.0000000000000000e+00  -5.8311823185727647e-07 1.1376356937184958e-06 0.0000000000000000e+00  -5.6002967558244114e-07 1.1374415701383615e-06 0.0000000000000000e+00  -5.8330340872108621e-07 1.1409618718894719e-06 0.0000000000000000e+00  -5.6023388243434064e-07 1.1407715860167065e-06 0.0000000000000000e+00  -5.8348471846694665e-07 1.1442850756498909e-06 0.0000000000000000e+00  -5.6043432911958928e-07 1.1440985954420501e-06 0.0000000000000000e+00  -5.8366219413759583e-07 1.1476052892433535e-06 0.0000000000000000e+00  -5.6063104691654825e-07 1.1474225825873030e-06 0.0000000000000000e+00  -5.8383586885581637e-07 1.1509224971606017e-06 0.0000000000000000e+00  -5.6082406716570119e-07 1.1507435318718507e-06 0.0000000000000000e+00  -5.8400577582524305e-07 1.1542366841421338e-06 0.0000000000000000e+00  -5.6101342127010238e-07 1.1540614279641800e-06 0.0000000000000000e+00  -5.8417194833117045e-07 1.1575478351808753e-06 0.0000000000000000e+00  -5.6119914069581996e-07 1.1573762557845533e-06 0.0000000000000000e+00  -5.8433441974134651e-07 1.1608559355249079e-06 0.0000000000000000e+00  -5.6138125697235710e-07 1.1606880005077448e-06 0.0000000000000000e+00  -5.8449322350677077e-07 1.1641609706802529e-06 0.0000000000000000e+00  -5.6155980169306970e-07 1.1639966475658337e-06 0.0000000000000000e+00  -5.8464839316248091e-07 1.1674629264137199e-06 0.0000000000000000e+00  -5.6173480651556556e-07 1.1673021826510553e-06 0.0000000000000000e+00  -5.8479996232833302e-07 1.1707617887558085e-06 0.0000000000000000e+00  -5.6190630316209264e-07 1.1706045917187156e-06 0.0000000000000000e+00  -5.8494796470977701e-07 1.1740575440036762e-06 0.0000000000000000e+00  -5.6207432341991236e-07 1.1739038609901679e-06 0.0000000000000000e+00  -5.8509243409862152e-07 1.1773501787241696e-06 0.0000000000000000e+00  -5.6223889914165447e-07 1.1771999769558486e-06 0.0000000000000000e+00  -5.6240006224566117e-07 1.1804929263783842e-06 0.0000000000000000e+00  -4.8272055993706629e-07 7.4986915440119983e-07 0.0000000000000000e+00  -4.8352837893706793e-07 7.5339529412555425e-07 0.0000000000000000e+00  -4.8432943353705839e-07 7.5692135238972691e-07 0.0000000000000000e+00  -4.8512375084644436e-07 7.6044729445924272e-07 0.0000000000000000e+00  -4.8591135795961918e-07 7.6397308572840175e-07 0.0000000000000000e+00  -4.8669228195695219e-07 7.6749869172069213e-07 0.0000000000000000e+00  -4.8746654990575921e-07 7.7102407808920697e-07 0.0000000000000000e+00  -4.8823418886125640e-07 7.7454921061706028e-07 0.0000000000000000e+00  -4.8899522586750175e-07 7.7807405521780883e-07 0.0000000000000000e+00  -4.8974968795831781e-07 7.8159857793587748e-07 0.0000000000000000e+00  -4.9049760215819980e-07 7.8512274494698477e-07 0.0000000000000000e+00  -4.9123899548321128e-07 7.8864652255857381e-07 0.0000000000000000e+00  -4.9197389494186482e-07 7.9216987721024714e-07 0.0000000000000000e+00  -4.9270232753598607e-07 7.9569277547420166e-07 0.0000000000000000e+00  -4.9342432026156878e-07 7.9921518405567074e-07 0.0000000000000000e+00  -4.9413990010961492e-07 8.0273706979336902e-07 0.0000000000000000e+00  -4.9484909406695913e-07 8.0625839965993775e-07 0.0000000000000000e+00  -4.9555192911708840e-07 8.0977914076240006e-07 0.0000000000000000e+00  -4.9624843224094089e-07 8.1329926034261580e-07 0.0000000000000000e+00  -4.9693863041769705e-07 8.1681872577774185e-07 0.0000000000000000e+00  -4.9762255062556397e-07 8.2033750458069540e-07 0.0000000000000000e+00  -4.9830021984253839e-07 8.2385556440062458e-07 0.0000000000000000e+00  -4.9897166504716950e-07 8.2737287302338157e-07 0.0000000000000000e+00  -4.9963691321930437e-07 8.3088939837200103e-07 0.0000000000000000e+00  -5.0029599134082389e-07 8.3440510850718407e-07 0.0000000000000000e+00  -5.0094892639637507e-07 8.3791997162778543e-07 0.0000000000000000e+00  -5.015957453