<?xml version="1.0"?>
<VTKFile type="UnstructuredGrid"  version="0.1"  >
<UnstructuredGrid>
<Piece  NumberOfPoints="8229" NumberOfCells="16075">
<Points>
<DataArray  type="Float64"  NumberOfComponents="3"  format="ascii">0.220703125 1 0  0.22265625 1 0  0.22265625 0.986328125 0  0.224609375 1 0  0.224609375 0.986328125 0  0.2265625 1 0  0.2265625 0.986328125 0  0.228515625 1 0  0.228515625 0.986328125 0  0.23046875 1 0  0.23046875 0.986328125 0  0.232421875 1 0  0.232421875 0.986328125 0  0.234375 1 0  0.234375 0.986328125 0  0.236328125 1 0  0.236328125 0.986328125 0  0.23828125 1 0  0.23828125 0.986328125 0  0.240234375 1 0  0.240234375 0.986328125 0  0.2421875 1 0  0.2421875 0.986328125 0  0.244140625 1 0  0.244140625 0.986328125 0  0.24609375 1 0  0.24609375 0.986328125 0  0.248046875 1 0  0.248046875 0.986328125 0  0.25 1 0  0.25 0.986328125 0  0.251953125 1 0  0.251953125 0.986328125 0  0.25390625 1 0  0.25390625 0.986328125 0  0.255859375 1 0  0.255859375 0.986328125 0  0.2578125 1 0  0.2578125 0.986328125 0  0.259765625 1 0  0.259765625 0.986328125 0  0.26171875 1 0  0.26171875 0.986328125 0  0.263671875 1 0  0.263671875 0.986328125 0  0.265625 1 0  0.265625 0.986328125 0  0.267578125 1 0  0.267578125 0.986328125 0  0.26953125 1 0  0.26953125 0.986328125 0  0.271484375 1 0  0.271484375 0.986328125 0  0.2734375 1 0  0.2734375 0.986328125 0  0.275390625 1 0  0.275390625 0.986328125 0  0.27734375 1 0  0.27734375 0.986328125 0  0.279296875 1 0  0.279296875 0.986328125 0  0.28125 1 0  0.28125 0.986328125 0  0.283203125 1 0  0.283203125 0.986328125 0  0.28515625 1 0  0.28515625 0.986328125 0  0.287109375 0.9999999999999999 0  0.287109375 0.9863281249999999 0  0.2890625 1 0  0.2890625 0.9863281250000002 0  0.291015625 1 0  0.291015625 0.986328125 0  0.29296875 0.9999999999999999 0  0.29296875 0.9863281249999999 0  0.294921875 1 0  0.294921875 0.9863281250000002 0  0.296875 1 0  0.296875 0.986328125 0  0.298828125 0.9999999999999999 0  0.298828125 0.9863281249999999 0  0.30078125 1 0  0.30078125 0.986328125 0  0.302734375 1 0  0.302734375 0.986328125 0  0.3046875 0.9999999999999999 0  0.3046875 0.9863281249999999 0  0.306640625 1 0  0.306640625 0.986328125 0  0.30859375 1 0  0.30859375 0.986328125 0  0.310546875 0.9999999999999999 0  0.310546875 0.9863281249999999 0  0.3125 1 0  0.3125 0.986328125 0  0.314453125 1 0  0.314453125 0.986328125 0  0.31640625 1 0  0.31640625 0.986328125 0  0.318359375 1 0  0.318359375 0.986328125 0  0.3203125 1 0  0.3203125 0.986328125 0  0.322265625 0.9999999999999999 0  0.322265625 0.9863281249999999 0  0.32421875 1 0  0.32421875 0.986328125 0  0.326171875 1 0  0.326171875 0.986328125 0  0.328125 0.9999999999999999 0  0.328125 0.9863281249999999 0  0.330078125 1 0  0.330078125 0.986328125 0  0.33203125 1 0  0.33203125 0.986328125 0  0.333984375 0.9999999999999999 0  0.333984375 0.9863281249999999 0  0.3359375 1 0  0.3359375 0.986328125 0  0.337890625 1 0  0.337890625 0.986328125 0  0.33984375 0.9999999999999999 0  0.33984375 0.9863281249999999 0  0.341796875 1 0  0.341796875 0.986328125 0  0.34375 1 0  0.34375 0.986328125 0  0.345703125 0.9999999999999999 0  0.345703125 0.9863281249999999 0  0.34765625 1 0  0.34765625 0.986328125 0  0.349609375 1 0  0.349609375 0.986328125 0  0.3515625 1 0  0.3515625 0.986328125 0  0.353515625 1 0  0.353515625 0.986328125 0  0.35546875 1 0  0.35546875 0.986328125 0  0.357421875 1 0  0.357421875 0.986328125 0  0.359375 1 0  0.359375 0.986328125 0  0.361328125 0.9999999999999999 0  0.361328125 0.9863281249999999 0  0.36328125 1 0  0.36328125 0.986328125 0  0.365234375 1 0  0.365234375 0.986328125 0  0.3671875 1 0  0.3671875 0.986328125 0  0.369140625 1 0  0.369140625 0.986328125 0  0.37109375 0.9999999999999998 0  0.37109375 0.9863281249999998 0  0.373046875 0.9999999999999999 0  0.373046875 0.9863281249999999 0  0.375 1 0  0.375 0.986328125 0  0.376953125 0.9999999999999999 0  0.376953125 0.9863281249999999 0  0.37890625 0.9999999999999999 0  0.37890625 0.9863281249999999 0  0.380859375 1 0  0.380859375 0.986328125 0  0.3828125 0.9999999999999998 0  0.3828125 0.9863281249999998 0  0.384765625 0.9999999999999999 0  0.384765625 0.9863281249999999 0  0.38671875 1 0  0.38671875 0.986328125 0  0.388671875 0.9999999999999999 0  0.388671875 0.9863281249999999 0  0.390625 0.9999999999999999 0  0.390625 0.9863281249999999 0  0.392578125 1 0  0.392578125 0.986328125 0  0.39453125 1 0  0.39453125 0.986328125 0  0.396484375 0.9999999999999999 0  0.396484375 0.9863281249999999 0  0.3984375 1 0  0.3984375 0.986328125 0  0.400390625 1 0  0.400390625 0.986328125 0  0.40234375 0.9999999999999999 0  0.40234375 0.9863281249999999 0  0.404296875 1 0  0.404296875 0.986328125 0  0.40625 0.9999999999999999 0  0.40625 0.9863281249999999 0  0.408203125 0.9999999999999999 0  0.408203125 0.9863281249999999 0  0.41015625 0.9999999999999999 0  0.41015625 0.9863281249999999 0  0.412109375 0.9999999999999999 0  0.412109375 0.9863281249999999 0  0.4140625 0.9999999999999998 0  0.4140625 0.9863281249999998 0  0.416015625 0.9999999999999999 0  0.416015625 0.9863281249999999 0  0.41796875 0.9999999999999999 0  0.41796875 0.9863281249999999 0  0.419921875 0.9999999999999998 0  0.419921875 0.9863281249999998 0  0.421875 0.9999999999999998 0  0.421875 0.9863281249999998 0  0.423828125 0.9999999999999999 0  0.423828125 0.9863281249999999 0  0.42578125 0.9999999999999998 0  0.42578125 0.9863281249999998 0  0.427734375 0.9999999999999998 0  0.427734375 0.9863281249999998 0  0.4296875 0.9999999999999999 0  0.4296875 0.9863281249999999 0  0.431640625 0.9999999999999998 0  0.431640625 0.9863281249999998 0  0.43359375 0.9999999999999998 0  0.43359375 0.9863281249999998 0  0.435546875 0.9999999999999999 0  0.435546875 0.9863281249999999 0  0.4375 0.9999999999999999 0  0.4375 0.9863281249999999 0  0.439453125 0.9999999999999998 0  0.439453125 0.9863281249999998 0  0.44140625 0.9999999999999999 0  0.44140625 0.9863281249999999 0  0.443359375 0.9999999999999999 0  0.443359375 0.9863281249999999 0  0.4453125 0.9999999999999998 0  0.4453125 0.9863281249999998 0  0.447265625 0.9999999999999999 0  0.447265625 0.9863281249999999 0  0.44921875 1 0  0.44921875 0.986328125 0  0.451171875 1 0  0.451171875 0.986328125 0  0.453125 0.9999999999999999 0  0.453125 0.9863281249999999 0  0.455078125 1 0  0.455078125 0.986328125 0  0.45703125 1 0  0.45703125 0.986328125 0  0.458984375 0.9999999999999999 0  0.458984375 0.9863281249999999 0  0.4609375 0.9999999999999999 0  0.4609375 0.9863281249999999 0  0.462890625 1 0  0.462890625 0.986328125 0  0.46484375 0.9999999999999999 0  0.46484375 0.9863281249999999 0  0.466796875 0.9999999999999999 0  0.466796875 0.9863281249999999 0  0.46875 0.9999999999999998 0  0.46875 0.9863281249999998 0  0.470703125 0.9863281249999999 0  0.224609375 0.97265625 0  0.22265625 0.97265625 0  0.2265625 0.97265625 0  0.228515625 0.97265625 0  0.23046875 0.97265625 0  0.232421875 0.97265625 0  0.234375 0.97265625 0  0.236328125 0.97265625 0  0.23828125 0.97265625 0  0.240234375 0.97265625 0  0.2421875 0.97265625 0  0.244140625 0.97265625 0  0.24609375 0.97265625 0  0.248046875 0.97265625 0  0.25 0.97265625 0  0.251953125 0.97265625 0  0.25390625 0.97265625 0  0.255859375 0.97265625 0  0.2578125 0.97265625 0  0.259765625 0.97265625 0  0.26171875 0.97265625 0  0.263671875 0.97265625 0  0.265625 0.97265625 0  0.267578125 0.97265625 0  0.26953125 0.97265625 0  0.271484375 0.97265625 0  0.2734375 0.97265625 0  0.275390625 0.97265625 0  0.27734375 0.97265625 0  0.279296875 0.97265625 0  0.28125 0.97265625 0  0.283203125 0.97265625 0  0.28515625 0.97265625 0  0.287109375 0.9726562499999999 0  0.2890625 0.9726562500000002 0  0.291015625 0.97265625 0  0.29296875 0.9726562499999999 0  0.294921875 0.9726562500000002 0  0.296875 0.97265625 0  0.298828125 0.9726562499999999 0  0.30078125 0.97265625 0  0.302734375 0.97265625 0  0.3046875 0.9726562499999999 0  0.306640625 0.97265625 0  0.30859375 0.97265625 0  0.310546875 0.9726562499999999 0  0.3125 0.97265625 0  0.314453125 0.97265625 0  0.31640625 0.97265625 0  0.318359375 0.97265625 0  0.3203125 0.97265625 0  0.322265625 0.9726562499999999 0  0.32421875 0.97265625 0  0.326171875 0.97265625 0  0.328125 0.9726562499999999 0  0.330078125 0.97265625 0  0.33203125 0.97265625 0  0.333984375 0.9726562499999999 0  0.3359375 0.97265625 0  0.337890625 0.97265625 0  0.33984375 0.9726562499999999 0  0.341796875 0.97265625 0  0.34375 0.97265625 0  0.345703125 0.9726562499999999 0  0.34765625 0.97265625 0  0.349609375 0.97265625 0  0.3515625 0.97265625 0  0.353515625 0.97265625 0  0.35546875 0.97265625 0  0.357421875 0.97265625 0  0.359375 0.97265625 0  0.361328125 0.9726562499999999 0  0.36328125 0.97265625 0  0.365234375 0.97265625 0  0.3671875 0.97265625 0  0.369140625 0.97265625 0  0.37109375 0.9726562499999998 0  0.373046875 0.9726562499999999 0  0.375 0.97265625 0  0.376953125 0.9726562499999999 0  0.37890625 0.9726562499999999 0  0.380859375 0.97265625 0  0.3828125 0.9726562499999998 0  0.384765625 0.9726562499999999 0  0.38671875 0.97265625 0  0.388671875 0.9726562499999999 0  0.390625 0.9726562499999999 0  0.392578125 0.97265625 0  0.39453125 0.97265625 0  0.396484375 0.9726562499999999 0  0.3984375 0.97265625 0  0.400390625 0.97265625 0  0.40234375 0.9726562499999999 0  0.404296875 0.97265625 0  0.40625 0.9726562499999999 0  0.408203125 0.9726562499999999 0  0.41015625 0.9726562499999999 0  0.412109375 0.9726562499999999 0  0.4140625 0.9726562499999998 0  0.416015625 0.9726562499999999 0  0.41796875 0.9726562499999999 0  0.419921875 0.9726562499999998 0  0.421875 0.9726562499999998 0  0.423828125 0.9726562499999999 0  0.42578125 0.9726562499999998 0  0.427734375 0.9726562499999998 0  0.4296875 0.9726562499999999 0  0.431640625 0.9726562499999998 0  0.43359375 0.9726562499999998 0  0.435546875 0.9726562499999999 0  0.4375 0.9726562499999999 0  0.439453125 0.9726562499999998 0  0.44140625 0.9726562499999999 0  0.443359375 0.9726562499999999 0  0.4453125
[...]
<PointData  Vectors="f_13"> 
<DataArray  type="Float64"  Name="f_13"  NumberOfComponents="3" format="ascii">-3.5310074697970733e-07 3.1242197125366889e-07 0.0000000000000000e+00  -3.5512693934061317e-07 3.1560122138915222e-07 0.0000000000000000e+00  -3.3349136151154317e-07 3.1360658823750997e-07 0.0000000000000000e+00  -3.5714100024225233e-07 3.1878595039494397e-07 0.0000000000000000e+00  -3.3546391160424717e-07 3.1680313851244819e-07 0.0000000000000000e+00  -3.5914299288855871e-07 3.2197610739512842e-07 0.0000000000000000e+00  -3.3742479983425318e-07 3.2000505755840746e-07 0.0000000000000000e+00  -3.6113297952609345e-07 3.2517164167431162e-07 0.0000000000000000e+00  -3.3937408585444411e-07 3.2321229549715213e-07 0.0000000000000000e+00  -3.6311102147172019e-07 3.2837250267603313e-07 0.0000000000000000e+00  -3.4131182844953398e-07 3.2642480258656331e-07 0.0000000000000000e+00  -3.6507717913933906e-07 3.3157864000119659e-07 0.0000000000000000e+00  -3.4323808556050540e-07 3.2964252921977153e-07 0.0000000000000000e+00  -3.6703151206572023e-07 3.3479000340652283e-07 0.0000000000000000e+00  -3.4515291430824469e-07 3.3286542592428570e-07 0.0000000000000000e+00  -3.6897407893547480e-07 3.3800654280302582e-07 0.0000000000000000e+00  -3.4705637101640581e-07 3.3609344336112263e-07 0.0000000000000000e+00  -3.7090493760519883e-07 3.4122820825451461e-07 0.0000000000000000e+00  -3.4894851123353663e-07 3.3932653232393507e-07 0.0000000000000000e+00  -3.7282414512682389e-07 3.4445494997612098e-07 0.0000000000000000e+00  -3.5082938975449574e-07 3.4256464373814646e-07 0.0000000000000000e+00  -3.7473175777020678e-07 3.4768671833285628e-07 0.0000000000000000e+00  -3.5269906064118637e-07 3.4580772866009030e-07 0.0000000000000000e+00  -3.7662783104498949e-07 3.5092346383819621e-07 0.0000000000000000e+00  -3.5455757724263594e-07 3.4905573827615924e-07 0.0000000000000000e+00  -3.7851241972175768e-07 3.5416513715269584e-07 0.0000000000000000e+00  -3.5640499221444650e-07 3.5230862390196271e-07 0.0000000000000000e+00  -3.8038557785252583e-07 3.5741168908263506e-07 0.0000000000000000e+00  -3.5824135753763871e-07 3.5556633698149699e-07 0.0000000000000000e+00  -3.8224735879057595e-07 3.6066307057869584e-07 0.0000000000000000e+00  -3.6006672453691449e-07 3.5882882908632809e-07 0.0000000000000000e+00  -3.8409781520967456e-07 3.6391923273467102e-07 0.0000000000000000e+00  -3.6188114389835856e-07 3.6209605191478872e-07 0.0000000000000000e+00  -3.8593699912269123e-07 3.6718012678620530e-07 0.0000000000000000e+00  -3.6368466568660212e-07 3.6536795729119081e-07 0.0000000000000000e+00  -3.8776496189964261e-07 3.7044570410956865e-07 0.0000000000000000e+00  -3.6547733936146585e-07 3.6864449716505470e-07 0.0000000000000000e+00  -3.8958175428518396e-07 3.7371591622046282e-07 0.0000000000000000e+00  -3.6725921379410374e-07 3.7192562361035445e-07 0.0000000000000000e+00  -3.9138742641556659e-07 3.7699071477286043e-07 0.0000000000000000e+00  -3.6903033728266534e-07 3.7521128882478282e-07 0.0000000000000000e+00  -3.9318202783508361e-07 3.8027005155787753e-07 0.0000000000000000e+00  -3.7079075756749322e-07 3.7850144512903415e-07 0.0000000000000000e+00  -3.9496560751202278e-07 3.8355387850267869e-07 0.0000000000000000e+00  -3.7254052184587332e-07 3.8179604496610581e-07 0.0000000000000000e+00  -3.9673821385414206e-07 3.8684214766941495e-07 0.0000000000000000e+00  -3.7427967678635487e-07 3.8509504090062052e-07 0.0000000000000000e+00  -3.9849989472368829e-07 3.9013481125419469e-07 0.0000000000000000e+00  -3.7600826854265177e-07 3.8839838561816801e-07 0.0000000000000000e+00  -4.0025069745197227e-07 3.9343182158608797e-07 0.0000000000000000e+00  -3.7772634276714535e-07 3.9170603192466813e-07 0.0000000000000000e+00  -4.0199066885351963e-07 3.9673313112616160e-07 0.0000000000000000e+00  -3.7943394462399738e-07 3.9501793274575329e-07 0.0000000000000000e+00  -4.0371985523980902e-07 4.0003869246654754e-07 0.0000000000000000e+00  -3.8113111880189065e-07 3.9833404112617269e-07 0.0000000000000000e+00  -4.0543830243261471e-07 4.0334845832954334e-07 0.0000000000000000e+00  -3.8281790952640797e-07 4.0165431022921772e-07 0.0000000000000000e+00  -4.0714605577696588e-07 4.0666238156674326e-07 0.0000000000000000e+00  -3.8449436057206055e-07 4.0497869333616767e-07 0.0000000000000000e+00  -4.0884316015373656e-07 4.0998041515820108e-07 0.0000000000000000e+00  -3.8616051527398384e-07 4.0830714384575784e-07 0.0000000000000000e+00  -4.1052965999187870e-07 4.1330251221162396e-07 0.0000000000000000e+00  -3.8781641653930234e-07 4.1163961527366759e-07 0.0000000000000000e+00  -4.1220559928030997e-07 4.1662862596159620e-07 0.0000000000000000e+00  -3.8946210685818404e-07 4.1497606125203066e-07 0.0000000000000000e+00  -4.1387102157946957e-07 4.1995870976883295e-07 0.0000000000000000e+00  -3.9109762831458859e-07 4.1831643552896571e-07 0.0000000000000000e+00  -4.1552597003255106e-07 4.2329271711946456e-07 0.0000000000000000e+00  -3.9272302259672025e-07 4.2166069196812769e-07 0.0000000000000000e+00  -4.1717048737642524e-07 4.2663060162434842e-07 0.0000000000000000e+00  -3.9433833100719994e-07 4.2500878454828136e-07 0.0000000000000000e+00  -4.1880461595225787e-07 4.2997231701841028e-07 0.0000000000000000e+00  -3.9594359447295450e-07 4.2836066736289373e-07 0.0000000000000000e+00  -4.2042839771584530e-07 4.3331781716001441e-07 0.0000000000000000e+00  -3.9753885355485080e-07 4.3171629461974834e-07 0.0000000000000000e+00  -4.2204187424765942e-07 4.3666705603035906e-07 0.0000000000000000e+00  -3.9912414845706052e-07 4.3507562064057793e-07 0.0000000000000000e+00  -4.2364508676262185e-07 4.4001998773290161e-07 0.0000000000000000e+00  -4.0069951903617925e-07 4.3843859986072089e-07 0.0000000000000000e+00  -4.2523807611962130e-07 4.4337656649281010e-07 0.0000000000000000e+00  -4.0226500481010893e-07 4.4180518682879248e-07 0.0000000000000000e+00  -4.2682088283076687e-07 4.4673674665643867e-07 0.0000000000000000e+00  -4.0382064496669772e-07 4.4517533620637920e-07 0.0000000000000000e+00  -4.2839354707039764e-07 4.5010048269083053e-07 0.0000000000000000e+00  -4.0536647837215638e-07 4.4854900276775078e-07 0.0000000000000000e+00  -4.2995610868385526e-07 4.5346772918324612e-07 0.0000000000000000e+00  -4.0690254357925654e-07 4.5192614139959142e-07 0.0000000000000000e+00  -4.3150860719602111e-07 4.5683844084071499e-07 0.0000000000000000e+00  -4.0842887883531368e-07 4.5530670710075000e-07 0.0000000000000000e+00  -4.3305108181962813e-07 4.6021257248961244e-07 0.0000000000000000e+00  -4.0994552208996199e-07 4.5869065498200778e-07 0.0000000000000000e+00  -4.3458357146335953e-07 4.6359007907525804e-07 0.0000000000000000e+00  -4.1145251100273221e-07 4.6207794026586534e-07 0.0000000000000000e+00  -4.3610611473973186e-07 4.6697091566153987e-07 0.0000000000000000e+00  -4.1294988295043380e-07 4.6546851828634602e-07 0.0000000000000000e+00  -4.3761874997277407e-07 4.7035503743055980e-07 0.0000000000000000e+00  -4.1443767503434595e-07 4.6886234448881648e-07 0.0000000000000000e+00  -4.3912151520551054e-07 4.7374239968229978e-07 0.0000000000000000e+00  -4.1591592408723022e-07 4.7225937442982547e-07 0.0000000000000000e+00  -4.4061444820724844e-07 4.7713295783431101e-07 0.0000000000000000e+00  -4.1738466668016214e-07 4.7565956377695851e-07 0.0000000000000000e+00  -4.4209758648068034e-07 4.8052666742142405e-07 0.0000000000000000e+00  -4.1884393912919228e-07 4.7906286830870908e-07 0.0000000000000000e+00  -4.4357096726880475e-07 4.8392348409547924e-07 0.0000000000000000e+00  -4.2029377750183907e-07 4.8246924391436440e-07 0.0000000000000000e+00  -4.4503462756167169e-07 4.8732336362507614e-07 0.0000000000000000e+00  -4.2173421762342118e-07 4.8587864659390956e-07 0.0000000000000000e+00  -4.4648860410295504e-07 4.9072626189534367e-07 0.0000000000000000e+00  -4.2316529508322859e-07 4.8929103245794423e-07 0.0000000000000000e+00  -4.4793293339636225e-07 4.9413213490772874e-07 0.0000000000000000e+00  -4.2458704524054491e-07 4.9270635772761532e-07 0.0000000000000000e+00  -4.4936765171188318e-07 4.9754093877980379e-07 0.0000000000000000e+00  -4.2599950323051877e-07 4.9612457873456487e-07 0.0000000000000000e+00  -4.5079279509187767e-07 5.0095262974509121e-07 0.0000000000000000e+00  -4.2740270396988940e-07 4.9954565192089046e-07 0.0000000000000000e+00  -4.5220839935701826e-07 5.0436716415290670e-07 0.0000000000000000e+00  -4.2879668216257517e-07 5.0296953383912188e-07 0.0000000000000000e+00  -4.5361450011208153e-07 5.0778449846821866e-07 0.0000000000000000e+00  -4.3018147230512302e-07 5.0639618115220817e-07 0.0000000000000000e+00  -4.5501113275159539e-07 5.1120458927152541e-07 0.0000000000000000e+00  -4.3155710869202541e-07 5.0982555063352030e-07 0.0000000000000000e+00  -4.5639833246535055e-07 5.1462739325874725e-07 0.0000000000000000e+00  -4.3292362542091074e-07 5.1325759916686576e-07 0.0000000000000000e+00  -4.5777613424377536e-07 5.1805286724113554e-07 0.0000000000000000e+00  -4.3428105639760681e-07 5.1669228374651631e-07 0.0000000000000000e+00  -4.5914457288317588e-07 5.2148096814519712e-07 0.0000000000000000e+00  -4.3562943534108053e-07 5.2012956147724630e-07 0.0000000000000000e+00  -4.6050368299085479e-07 5.2491165301263008e-07 0.0000000000000000e+00  -4.3696879578826331e-07 5.2356938957438456e-07 0.0000000000000000e+00  -4.6185349899010021e-07 5.2834487900028052e-07 0.0000000000000000e+00  -4.3829917109875839e-07 5.2701172536387674e-07 0.0000000000000000e+00  -4.6319405512505594e-07 5.3178060338010834e-07 0.0000000000000000e+00  -4.3962059445943559e-07 5.3045652628235832e-07 0.0000000000000000e+00  -4.6452538546547555e-07 5.3521878353916784e-07 0.0000000000000000e+00  -4.4093309888891955e-07 5.3390374987724145e-07 0.0000000000000000e+00  -4.6584752391135940e-07 5.3865937697960212e-07 0.0000000000000000e+00  -4.4223671724197060e-07 5.3735335380680779e-07 0.0000000000000000e+00  -4.6716050419748312e-07 5.4210234131865124e-07 0.0000000000000000e+00  -4.4353148221376118e-07 5.4080529584031557e-07 0.0000000000000000e+00  -4.6846435989781684e-07 5.4554763428867053e-07 0.0000000000000000e+00  -4.4481742634405331e-07 5.4425953385811423e-07 0.0000000000000000e+00  -4.6975912442983941e-07 5.4899521373716341e-07 0.0000000000000000e+00  -4.4609458202127831e-07 5.4771602585176973e-07 0.0000000000000000e+00  -4.7104483105874985e-07 5.5244503762682439e-07 0.0000000000000000e+00  -4.4736298148651991e-07 5.5117472992419938e-07 0.0000000000000000e+00  -4.7232151290158104e-07 5.5589706403559422e-07 0.0000000000000000e+00  -4.4862265683740721e-07 5.5463560428981458e-07 0.0000000000000000e+00  -4.7358920293121289e-07 5.5935125115672574e-07 0.0000000000000000e+00  -4.4987364003191357e-07 5.5809860727467344e-07 0.0000000000000000e+00  -4.7484793398029639e-07 5.6280755729886152e-07 0.0000000000000000e+00  -4.5111596289207238e-07 5.6156369731664206e-07 0.0000000000000000e+00  -4.7609773874508092e-07 5.6626594088612012e-07 0.0000000000000000e+00  -4.5234965710760386e-07 5.6503083296556327e-07 0.0000000000000000e+00  -4.7733864978915506e-07 5.6972636045819489e-07 0.0000000000000000e+00  -4.5357475423945965e-07 5.6849997288343360e-07 0.0000000000000000e+00  -4.7857069954710205e-07 5.7318877467045920e-07 0.0000000000000000e+00  -4.5479128572328738e-07 5.7197107584458787e-07 0.0000000000000000e+00  -4.7979392032806424e-07 5.7665314229408453e-07 0.0000000000000000e+00  -4.5599928287281260e-07 5.7544410073589282e-07 0.0000000000000000e+00  -4.8100834431923117e-07 5.8011942221616620e-07 0.0000000000000000e+00  -4.5719877688314810e-07 5.7891900655694586e-07 0.0000000000000000e+00  -4.8221400358924767e-07 5.8358757343985747e-07 0.0000000000000000e+00  -4.5838979883402742e-07 5.8239575242028162e-07 0.0000000000000000e+00  -4.8341093009153805e-07 5.8705755508451350e-07 0.0000000000000000e+00  -4.5957237969296319e-07 5.8587429755158512e-07 0.0000000000000000e+00  -4.8459915566755915e-07 5.9052932638584296e-07 0.0000000000000000e+00  -4.6074655031833465e-07 5.8935460128991268e-07 0.0000000000000000e+00  -4.8577871204998017e-07 5.9400284669606817e-07 0.0000000000000000e+00  -4.6191234146240985e-07 5.9283662308791751e-07 0.0000000000000000e+00  -4.8694963086578349e-07 5.9747807548409127e-07 0.0000000000000000e+00  -4.6306978377429345e-07 5.9632032251208249e-07 0.0000000000000000e+00  -4.8811194363930357e-07 6.0095497233567087e-07 0.0000000000000000e+00  -4.6421890780281525e-07 5.9980565924295832e-07 0.0000000000000000e+00  -4.8926568179519309e-07 6.0443349695360382e-07 0.0000000000000000e+00  -4.6535974399935139e-07 6.0329259307540862e-07 0.0000000000000000e+00  -4.9041087666132199e-07 6.0791360915791570e-07 0.0000000000000000e+00  -4.6649232272058368e-07 6.0678108391885927e-07 0.0000000000000000e+00  -4.9154755947161219e-07 6.1139526888605668e-07 0.0000000000000000e+00  -4.6761667423119606e-07 6.1027109179755157e-07 0.0000000000000000e+00  -4.9267576136881150e-07 6.1487843619310398e-07 0.0000000000000000e+00  -4.6873282870651572e-07 6.1376257685080578e-07 0.0000000000000000e+00  -4.9379551340720195e-07 6.1836307125197299e-07 0.0000000000000000e+00  -4.6984081623509397e-07 6.1725549933328379e-07 0.0000000000000000e+00  -4.9490684655525040e-07 6.2184913435363219e-07 0.0000000000000000e+00  -4.7094066682122956e-07 6.2074981961526041e-07 0.0000000000000000e+00  -4.9600979169820041e-07 6.2533658590732487e-07 0.0000000000000000e+00  -4.7203241038743984e-07 6.2424549818289810e-07 0.0000000000000000e+00  -4.9710437964060782e-07 6.2882538644079742e-07 0.0000000000000000e+00  -4.7311607677687728e-07 6.2774249563852629e-07 0.0000000000000000e+00  -4.9819064110881799e-07 6.3231549660053223e-07 0.0000000000000000e+00  -4.7419169575569182e-07 6.3124077270092376e-07 0.0000000000000000e+00  -4.9926860675339385e-07 6.3580687715198701e-07 0.0000000000000000e+00  -4.7525929701534593e-07 6.3474029020560843e-07 0.0000000000000000e+00  -5.0033830715148606e-07 6.3929948897983851e-07 0.0000000000000000e+00  -4.7631891017487703e-07 6.3824100910512778e-07 0.0000000000000000e+00  -5.0139977280915596e-07 6.4279329308823196e-07 0.0000000000000000e+00  -4.7737056478311280e-07 6.4174289046935650e-07 0.0000000000000000e+00  -5.0245303416364618e-07 6.4628825060103658e-07 0.0000000000000000e+00  -4.7841429032083989e-07 6.4524589548579544e-07 0.0000000000000000e+00  -5.0349812158560395e-07 6.4978432276210391e-07 0.0000000000000000e+00  -4.7945011620292677e-07 6.4874998545987386e-07 0.0000000000000000e+00  -5.0453506538125496e-07 6.5328147093553187e-07 0.0000000000000000e+00  -4.8047807178039926e-07 6.5225512181525833e-07 0.0000000000000000e+00  -5.0556389579453456e-07 6.5677965660593212e-07 0.0000000000000000e+00  -4.8149818634247506e-07 6.5576126609416267e-07 0.0000000000000000e+00  -5.0658464300917139e-07 6.6027884137870553e-07 0.0000000000000000e+00  -4.8251048911855631e-07 6.5926837995766185e-07 0.0000000000000000e+00  -5.0759733715072665e-07 6.6377898698031856e-07 0.0000000000000000e+00  -4.8351500928017778e-07 6.6277642518600966e-07 0.0000000000000000e+00  -5.0860200828859267e-07 6.6728005525858446e-07 0.0000000000000000e+00  -4.8451177594291636e-07 6.6628536367895856e-07 0.0000000000000000e+00  -5.0959868643794987e-07 6.7078200818294901e-07 0.0000000000000000e+00  -4.8550081816826326e-07 6.6979515745608419e-07 0.0000000000000000e+00  -5.1058740156168223e-07 6.7428480784478068e-07 0.0000000000000000e+00  -4.8648216496545283e-07 6.7330576865711211e-07 0.0000000000000000e+00  -5.1156818357225154e-07 6.7778841645766451e-07 0.0000000000000000e+00  -4.8745584529325838e-07 6.7681715954224615e-07 0.0000000000000000e+00  -5.1254106233353981e-07 6.8129279635769901e-07 0.0000000000000000e+00  -4.8842188806175034e-07 6.8032929249250300e-07 0.0000000000000000e+00  -5.1350606766264618e-07 6.8479791000379802e-07 0.0000000000000000e+00  -4.8938032213401767e-07 6.8384213001004609e-07 0.0000000000000000e+00  -5.1446322933165186e-07 6.8830371997799544e-07 0.0000000000000000e+00  -4.9033117632785512e-07 6.8735563471852447e-07 0.0000000000000000e+00  -5.1541257706935163e-07 6.9181018898575396e-07 0.0000000000000000e+00  -4.9127447941741797e-07 6.9086976936341382e-07 0.0000000000000000e+00  -5.1635414056294638e-07 6.9531727985627687e-07 0.0000000000000000e+00  -4.9221026013484434e-07 6.9438449681236003e-07 0.0000000000000000e+00  -5.1728794945970365e-07 6.9882495554282486e-07 0.0000000000000000e+00  -4.9313854717184165e-07 6.9789978005552636e-07 0.0000000000000000e+00  -5.1821403336858771e-07 7.0233317912303313e-07 0.0000000000000000e+00  -4.9405936918124637e-07 7.0141558220594108e-07 0.0000000000000000e+00  -5.1913242186185582e-07 7.0584191379923581e-07 0.0000000000000000e+00  -4.9497275477855147e-07 7.0493186649985023e-07 0.0000000000000000e+00  -5.2004314447662333e-07 7.0935112289879087e-07 0.0000000000000000e+00  -4.9587873254340342e-07 7.0844859629707125e-07 0.0000000000000000e+00  -5.2094623071640008e-07 7.1286076987440924e-07 0.0000000000000000e+00  -4.9677733102107162e-07 7.1196573508135034e-07 0.0000000000000000e+00  -5.2184171005259760e-07 7.1637081830448733e-07 0.0000000000000000e+00  -4.9766857872389052e-07 7.1548324646072078e-07 0.0000000000000000e+00  -5.2272961192600600e-07 7.1988123189344313e-07 0.0000000000000000e+00  -4.9855250413267178e-07 7.1900109416786591e-07 0.0000000000000000e+00  -5.2360996574824476e-07 7.2339197447205531e-07 0.0000000000000000e+00  -4.9942913569809253e-07 7.2251924206048354e-07 0.0000000000000000e+00  -5.2448280090318762e-07 7.2690300999780469e-07 0.0000000000000000e+00  -5.0029850184205553e-07 7.2603765412165248e-07 0.0000000000000000e+00  -5.2534814674836041e-07 7.3041430255522007e-07 0.0000000000000000e+00  -5.0116063095902709e-07 7.2955629446020224e-07 0.0000000000000000e+00  -5.2620603261631071e-07 7.3392581635622767e-07 0.0000000000000000e+00  -5.0201555141734605e-07 7.3307512731108503e-07 0.0000000000000000e+00  -5.2705648781595703e-07 7.3743751574050230e-07 0.0000000000000000e+00  -5.0286329156051221e-07 7.3659411703575084e-07 0.0000000000000000e+00  -5.2789954163391383e-07 7.4094936517582286e-07 0.0000000000000000e+00  -5.0370387970845183e-07 7.4011322812252547e-07 0.0000000000000000e+00  -5.2873522333579022e-07 7.4446132925843117e-07 0.0000000000000000e+00  -5.0453734415875773e-07 7.4363242518698819e-07 0.0000000000000000e+00  -5.0536371318790996e-07 7.4715167297235829e-07 0.0000000000000000e+00  -3.1501365284254714e-07 3.1488547450409872e-07 0.0000000000000000e+00  -3.1308904054799079e-07 3.1167787588962792e-07 0.0000000000000000e+00  -3.1692710584869461e-07 3.1809839580066353e-07 0.0000000000000000e+00  -3.1882945387145077e-07 3.2131659031937212e-07 0.0000000000000000e+00  -3.2072075050219768e-07 3.2454000873091118e-07 0.0000000000000000e+00  -3.2260104863692836e-07 3.2776860183557475e-07 0.0000000000000000e+00  -3.2447040049398280e-07 3.3100232056225527e-07 0.0000000000000000e+00  -3.2632885763129399e-07 3.3424111596745523e-07 0.0000000000000000e+00  -3.2817647096315748e-07 3.3748493923432383e-07 0.0000000000000000e+00  -3.3001329077653842e-07 3.4073374167171452e-07 0.0000000000000000e+00  -3.3183936674693183e-07 3.4398747471326606e-07 0.0000000000000000e+00  -3.3365474795379011e-07 3.4724608991650790e-07 0.0000000000000000e+00  -3.3545948289552832e-07 3.5050953896198839e-07 0.0000000000000000e+00  -3.3725361950412466e-07 3.5377777365242814e-07 0.0000000000000000e+00  -3.3903720515932480e-07 3.5705074591189692e-07 0.0000000000000000e+00  -3.4081028670246456e-07 3.6032840778501573e-07 0.0000000000000000e+00  -3.4257291044992177e-07 3.6361071143618279e-07 0.0000000000000000e+00  -3.4432512220620789e-07 3.6689760914882490e-07 0.0000000000000000e+00  -3.4606696727671347e-07 3.7018905332467251e-07 0.0000000000000000e+00  -3.4779849048011294e-07 3.7348499648306141e-07 0.0000000000000000e+00  -3.4951973616044357e-07 3.7678539126025562e-07 0.0000000000000000e+00  -3.5123074819886699e-07 3.8009019040879939e-07 0.0000000000000000e+00  -3.5293157002512205e-07 3.8339934679688941e-07 0.0000000000000000e+00  -3.5462224462867889e-07 3.8671281340777425e-07 0.0000000000000000e+00  -3.563028145