<?xml version="1.0"?>
<VTKFile type="UnstructuredGrid"  version="0.1"  >
<UnstructuredGrid>
<Piece  NumberOfPoints="8544" NumberOfCells="16693">
<Points>
<DataArray  type="Float64"  NumberOfComponents="3"  format="ascii">0 1 0  0.001953125 1 0  0.001953125 0.986328125 0  0 0.986328125 0  0.00390625 1 0  0.00390625 0.986328125 0  0.005859375 1 0  0.005859375 0.986328125 0  0.0078125 1 0  0.0078125 0.986328125 0  0.009765625 1 0  0.009765625 0.986328125 0  0.01171875 1 0  0.01171875 0.986328125 0  0.013671875 1 0  0.013671875 0.986328125 0  0.015625 1 0  0.015625 0.986328125 0  0.017578125 1 0  0.017578125 0.986328125 0  0.01953125 1 0  0.01953125 0.986328125 0  0.021484375 1 0  0.021484375 0.986328125 0  0.0234375 1 0  0.0234375 0.986328125 0  0.025390625 1 0  0.025390625 0.986328125 0  0.02734375 1 0  0.02734375 0.986328125 0  0.029296875 1 0  0.029296875 0.986328125 0  0.03125 1 0  0.03125 0.986328125 0  0.033203125 1 0  0.033203125 0.986328125 0  0.03515625 1 0  0.03515625 0.986328125 0  0.037109375 1 0  0.037109375 0.986328125 0  0.0390625 1 0  0.0390625 0.986328125 0  0.041015625 1 0  0.041015625 0.986328125 0  0.04296875 1 0  0.04296875 0.986328125 0  0.044921875 1 0  0.044921875 0.986328125 0  0.046875 1 0  0.046875 0.986328125 0  0.048828125 1 0  0.048828125 0.986328125 0  0.05078125 0.9999999999999999 0  0.05078125 0.9863281249999999 0  0.052734375 1 0  0.052734375 0.986328125 0  0.0546875 1 0  0.0546875 0.986328125 0  0.056640625 0.9999999999999999 0  0.056640625 0.9863281249999999 0  0.05859375 1 0  0.05859375 0.986328125 0  0.060546875 1 0  0.060546875 0.986328125 0  0.0625 0.9999999999999999 0  0.0625 0.9863281249999999 0  0.064453125 1 0  0.064453125 0.986328125 0  0.06640625 1 0  0.06640625 0.986328125 0  0.068359375 0.9999999999999999 0  0.068359375 0.9863281249999999 0  0.0703125 1 0  0.0703125 0.986328125 0  0.072265625 1 0  0.072265625 0.986328125 0  0.07421875 0.9999999999999999 0  0.07421875 0.9863281249999999 0  0.076171875 1 0  0.076171875 0.986328125 0  0.078125 1 0  0.078125 0.986328125 0  0.080078125 0.9999999999999999 0  0.080078125 0.9863281249999999 0  0.08203125 1 0  0.08203125 0.986328125 0  0.083984375 1 0  0.083984375 0.986328125 0  0.0859375 0.9999999999999999 0  0.0859375 0.9863281249999999 0  0.087890625 1 0  0.087890625 0.986328125 0  0.08984375 1 0  0.08984375 0.986328125 0  0.091796875 0.9999999999999999 0  0.091796875 0.9863281249999999 0  0.09375 1 0  0.09375 0.986328125 0  0.095703125 1 0  0.095703125 0.986328125 0  0.09765625 0.9999999999999999 0  0.09765625 0.9863281249999999 0  0.099609375 1 0  0.099609375 0.986328125 0  0.1015625 1 0  0.1015625 0.986328125 0  0.103515625 0.9999999999999999 0  0.103515625 0.9863281249999999 0  0.10546875 1 0  0.10546875 0.986328125 0  0.107421875 1 0  0.107421875 0.986328125 0  0.109375 0.9999999999999999 0  0.109375 0.9863281249999999 0  0.111328125 1 0  0.111328125 0.986328125 0  0.11328125 1 0  0.11328125 0.986328125 0  0.115234375 1 0  0.115234375 0.986328125 0  0.1171875 1 0  0.1171875 0.986328125 0  0.119140625 1 0  0.119140625 0.986328125 0  0.12109375 1 0  0.12109375 0.986328125 0  0.123046875 1 0  0.123046875 0.986328125 0  0.125 1 0  0.125 0.986328125 0  0.126953125 1 0  0.126953125 0.986328125 0  0.12890625 1 0  0.12890625 0.986328125 0  0.130859375 1 0  0.130859375 0.986328125 0  0.1328125 1 0  0.1328125 0.986328125 0  0.134765625 1 0  0.134765625 0.986328125 0  0.13671875 1 0  0.13671875 0.986328125 0  0.138671875 1 0  0.138671875 0.986328125 0  0.140625 1 0  0.140625 0.986328125 0  0.142578125 1 0  0.142578125 0.986328125 0  0.14453125 0.9999999999999998 0  0.14453125 0.9863281249999998 0  0.146484375 0.9999999999999999 0  0.146484375 0.9863281249999999 0  0.1484375 0.9999999999999997 0  0.1484375 0.9863281249999997 0  0.150390625 0.9999999999999998 0  0.150390625 0.9863281249999998 0  0.15234375 0.9999999999999999 0  0.15234375 0.9863281249999999 0  0.154296875 0.9999999999999997 0  0.154296875 0.9863281249999997 0  0.15625 0.9999999999999998 0  0.15625 0.9863281249999998 0  0.158203125 0.9999999999999999 0  0.158203125 0.9863281249999999 0  0.16015625 0.9999999999999997 0  0.16015625 0.9863281249999997 0  0.162109375 1 0  0.162109375 0.986328125 0  0.1640625 1 0  0.1640625 0.986328125 0  0.166015625 0.9999999999999999 0  0.166015625 0.9863281249999999 0  0.16796875 1 0  0.16796875 0.986328125 0  0.169921875 1 0  0.169921875 0.986328125 0  0.171875 0.9999999999999999 0  0.171875 0.9863281249999999 0  0.173828125 1 0  0.173828125 0.986328125 0  0.17578125 1 0  0.17578125 0.986328125 0  0.177734375 0.9999999999999999 0  0.177734375 0.9863281249999999 0  0.1796875 1 0  0.1796875 0.986328125 0  0.181640625 1 0  0.181640625 0.986328125 0  0.18359375 1 0  0.18359375 0.986328125 0  0.185546875 1 0  0.185546875 0.986328125 0  0.1875 1 0  0.1875 0.986328125 0  0.189453125 0.9999999999999999 0  0.189453125 0.9863281249999999 0  0.19140625 1 0  0.19140625 0.986328125 0  0.193359375 1 0  0.193359375 0.986328125 0  0.1953125 0.9999999999999999 0  0.1953125 0.9863281249999999 0  0.197265625 1 0  0.197265625 0.986328125 0  0.19921875 1 0  0.19921875 0.986328125 0  0.201171875 1 0  0.201171875 0.986328125 0  0.203125 1 0  0.203125 0.986328125 0  0.205078125 1 0  0.205078125 0.986328125 0  0.20703125 0.9999999999999999 0  0.20703125 0.9863281249999999 0  0.208984375 1 0  0.208984375 0.986328125 0  0.2109375 0.9999999999999999 0  0.2109375 0.9863281249999999 0  0.212890625 0.9999999999999999 0  0.212890625 0.9863281249999999 0  0.21484375 1 0  0.21484375 0.986328125 0  0.216796875 0.9999999999999999 0  0.216796875 0.9863281249999999 0  0.21875 0.9999999999999999 0  0.21875 0.9863281249999999 0  0.220703125 1 0  0.220703125 0.986328125 0  0.22265625 0.986328125 0  0.001953125 0.97265625 0  0 0.97265625 0  0.00390625 0.97265625 0  0.005859375 0.97265625 0  0.0078125 0.97265625 0  0.009765625 0.97265625 0  0.01171875 0.97265625 0  0.013671875 0.97265625 0  0.015625 0.97265625 0  0.017578125 0.97265625 0  0.01953125 0.97265625 0  0.021484375 0.97265625 0  0.0234375 0.97265625 0  0.025390625 0.97265625 0  0.02734375 0.97265625 0  0.029296875 0.97265625 0  0.03125 0.97265625 0  0.033203125 0.97265625 0  0.03515625 0.97265625 0  0.037109375 0.97265625 0  0.0390625 0.97265625 0  0.041015625 0.97265625 0  0.04296875 0.97265625 0  0.044921875 0.97265625 0  0.046875 0.97265625 0  0.048828125 0.97265625 0  0.05078125 0.9726562499999999 0  0.052734375 0.97265625 0  0.0546875 0.97265625 0  0.056640625 0.9726562499999999 0  0.05859375 0.97265625 0  0.060546875 0.97265625 0  0.0625 0.9726562499999999 0  0.064453125 0.97265625 0  0.06640625 0.97265625 0  0.068359375 0.9726562499999999 0  0.0703125 0.97265625 0  0.072265625 0.97265625 0  0.07421875 0.9726562499999999 0  0.076171875 0.97265625 0  0.078125 0.97265625 0  0.080078125 0.9726562499999999 0  0.08203125 0.97265625 0  0.083984375 0.97265625 0  0.0859375 0.9726562499999999 0  0.087890625 0.97265625 0  0.08984375 0.97265625 0  0.091796875 0.9726562499999999 0  0.09375 0.97265625 0  0.095703125 0.97265625 0  0.09765625 0.9726562499999999 0  0.099609375 0.97265625 0  0.1015625 0.97265625 0  0.103515625 0.9726562499999999 0  0.10546875 0.97265625 0  0.107421875 0.97265625 0  0.109375 0.9726562499999999 0  0.111328125 0.97265625 0  0.11328125 0.97265625 0  0.115234375 0.97265625 0  0.1171875 0.97265625 0  0.119140625 0.97265625 0  0.12109375 0.97265625 0  0.123046875 0.97265625 0  0.125 0.97265625 0  0.126953125 0.97265625 0  0.12890625 0.97265625 0  0.130859375 0.97265625 0  0.1328125 0.97265625 0  0.134765625 0.97265625 0  0.13671875 0.97265625 0  0.138671875 0.97265625 0  0.140625 0.97265625 0  0.142578125 0.97265625 0  0.14453125 0.9726562499999998 0  0.146484375 0.9726562499999999 0  0.1484375 0.9726562499999997 0  0.150390625 0.9726562499999998 0  0.15234375 0.9726562499999999 0  0.154296875 0.9726562499999997 0  0.15625 0.9726562499999998 0  0.158203125 0.9726562499999999 0  0.16015625 0.9726562499999997 0  0.162109375 0.97265625 0  0.1640625 0.97265625 0  0.166015625 0.9726562499999999 0  0.16796875 0.97265625 0  0.169921875 0.97265625 0  0.171875 0.9726562499999999 0  0.173828125 0.97265625 0  0.17578125 0.97265625 0  0.177734375 0.9726562499999999 0  0.1796875 0.97265625 0  0.181640625 0.97265625 0  0.18359375 0.97265625 0  0.185546875 0.97265625 0  0.1875 0.97265625 0  0.189453125 0.9726562499999999 0  0.19140625 0.97265625 0  0.193359375 0.97265625 0  0.1953125 0.9726562499999999 0  0.197265625 0.97265625 0  0.19921875 0.97265625 0  0.201171875 0.97265625 0  0.203125 0.97265625 0  0.205078125 0.97265625 0  0.20703125 0.9726562499999999 0  0.208984375 0.97265625 0  0.2109375 0.9726562499999999 0  0.212890625 0.9726562499999999 0  0.21484375 0.97265625 0  0.216796875 0.9726562499999999 0  0.21875 0.9726562499999999 0  0.220703125 0.97265625 0  0.22265625 0.97265625 0  0.001953125 0.958984375 0  0 0.958984375 0  0.00390625 0.958984375 0  0.005859375 0.958984375 0  0.0078125 0.958984375 0  0.009765625 0.958984375 0  0.01171875 0.958984375 0  0.013671875 0.958984375 0  0.015625 0.958984375 0  0.017578125 0.958984375 0  0.01953125 0.958984375 0  0.021484375 0.958984375 0  0.0234375 0.958984375 0  0.025390625 0.958984375 0  0.02734375 0.958984375 0  0.029296875 0.958984375 0  0.03125 0.958984375 0  0.033203125 0.958984375 0  0.03515625 0.958984375 0  0.037109375 0.958984375 0  0.0390625 0.958984375 0  0.041015625 0.958984375 0  0.04296875 0.958984375 0  0.044921875 0.958984375 0  0.046875 0.958984375 0  0.048828125 0.958984375 0  0.05078125 0.9589843749999999 0  0.052734375 0.958984375 0  0.0546875 0.958984375 0  0.056640625 0.9589843749999999 0  0.05859375 0.958984375 0  0.060546875 0.958984375 0  0.0625 0.9589843749999999 0  0.064453125 0.958984375 0  0.06640625 0.958984375 0  0.068359375 0.9589843749999999 0  0.0703125 0.958984375 0  0.072265625 0.958984375 0  0.07421875 0.9589843749999999 0  0.076171875 0.958984375 0  0.078125 0.958984375 0  0.080078125 0.9589843749999999 0  0.08203125 0.9589
[...]
<PointData  Vectors="f_13"> 
<DataArray  type="Float64"  Name="f_13"  NumberOfComponents="3" format="ascii">0.0000000000000000e+00 0.0000000000000000e+00 0.0000000000000000e+00  -6.0465697827210991e-09 2.7127934237998242e-09 0.0000000000000000e+00  -4.1455035050957701e-09 1.5880287143232102e-09 0.0000000000000000e+00  0.0000000000000000e+00 0.0000000000000000e+00 0.0000000000000000e+00  -1.1867261632562094e-08 5.2787187995841550e-09 0.0000000000000000e+00  -8.3328195536158865e-09 3.3692910134061662e-09 0.0000000000000000e+00  -1.7486267796990867e-08 7.7503785389429318e-09 0.0000000000000000e+00  -1.2541509698800373e-08 5.2907920081957517e-09 0.0000000000000000e+00  -2.2924371235550833e-08 1.0162773383732496e-08 0.0000000000000000e+00  -1.6756269698475056e-08 7.3157953278079031e-09 0.0000000000000000e+00  -2.8199512799298423e-08 1.2539165710507320e-08 0.0000000000000000e+00  -2.0965602259185441e-08 9.4186162860200338e-09 0.0000000000000000e+00  -3.3327248236806461e-08 1.4894993155727275e-08 0.0000000000000000e+00  -2.5160858786786283e-08 1.1581127635845523e-08 0.0000000000000000e+00  -3.8321119508186209e-08 1.7240481560025374e-08 0.0000000000000000e+00  -2.9335541105724642e-08 1.3790405784509539e-08 0.0000000000000000e+00  -4.3192958890990696e-08 1.9582389587424944e-08 0.0000000000000000e+00  -3.3484787691458326e-08 1.6037138209424748e-08 0.0000000000000000e+00  -4.7953139923862542e-08 2.1925173307452732e-08 0.0000000000000000e+00  -3.7604991923113009e-08 1.8314540305456688e-08 0.0000000000000000e+00  -5.2610785937013589e-08 2.4271763132882179e-08 0.0000000000000000e+00  -4.1693515622397643e-08 2.0617614249247987e-08 0.0000000000000000e+00  -5.7173944458343141e-08 2.6624081615009388e-08 0.0000000000000000e+00  -4.5748472004260806e-08 2.2942638342938546e-08 0.0000000000000000e+00  -6.1649733938259557e-08 2.8983387990007205e-08 0.0000000000000000e+00  -4.9768559682330443e-08 2.5286812358278389e-08 0.0000000000000000e+00  -6.6044467843308298e-08 3.1350506927689425e-08 0.0000000000000000e+00  -5.3752934602909149e-08 2.7648009015564293e-08 0.0000000000000000e+00  -7.0363760110525792e-08 3.3725979930427447e-08 0.0000000000000000e+00  -5.7701110441579600e-08 3.0024598106505489e-08 0.0000000000000000e+00  -7.4612615144811043e-08 3.6110165121444342e-08 0.0000000000000000e+00  -6.1612880573985880e-08 3.2415320684686403e-08 0.0000000000000000e+00  -7.8795504917411843e-08 3.8503302655931165e-08 0.0000000000000000e+00  -6.5488256560027042e-08 3.4819198038713673e-08 0.0000000000000000e+00  -8.2916435238520258e-08 4.0905557291330507e-08 0.0000000000000000e+00  -6.9327419386526076e-08 3.7235465046919625e-08 0.0000000000000000e+00  -8.6979002896838228e-08 4.3317045834936213e-08 0.0000000000000000e+00  -7.3130680654109321e-08 3.9663520793739060e-08 0.0000000000000000e+00  -9.0986445058587765e-08 4.5737854626885751e-08 0.0000000000000000e+00  -7.6898451577635402e-08 4.2102891540427314e-08 0.0000000000000000e+00  -9.4941682079073810e-08 4.8168050499759366e-08 0.0000000000000000e+00  -8.0631218170940234e-08 4.4553202641079209e-08 0.0000000000000000e+00  -9.8847354687591752e-08 5.0607687504729981e-08 0.0000000000000000e+00  -8.4329521358038072e-08 4.7014157014590487e-08 0.0000000000000000e+00  -1.0270585635072352e-07 5.3056810922577641e-08 0.0000000000000000e+00  -8.7993941030722386e-08 4.9485518481209670e-08 0.0000000000000000e+00  -1.0651936149197570e-07 5.5515459561215763e-08 0.0000000000000000e+00  -9.1625083282412549e-08 5.1967098753366009e-08 0.0000000000000000e+00  -1.1028985014126427e-07 5.7983666995989373e-08 0.0000000000000000e+00  -9.5223570208279375e-08 5.4458747204541258e-08 0.0000000000000000e+00  -1.1401912950134364e-07 6.0461462178689471e-08 0.0000000000000000e+00  -9.8790031785126638e-08 5.6960342774016813e-08 0.0000000000000000e+00  -1.1770885284636054e-07 6.2948869688186137e-08 0.0000000000000000e+00  -1.0232509944052369e-07 5.9471787530926260e-08 0.0000000000000000e+00  -1.2136053610752867e-07 6.5445909794395041e-08 0.0000000000000000e+00  -1.0582940099603657e-07 6.1993001539472116e-08 0.0000000000000000e+00  -1.2497557245029818e-07 6.7952598440845322e-08 0.0000000000000000e+00  -1.0930355672901623e-07 6.4523918752843634e-08 0.0000000000000000e+00  -1.2855524510464136e-07 7.0468947207895939e-08 0.0000000000000000e+00  -1.1274817634493013e-07 6.7064483726121551e-08 0.0000000000000000e+00  -1.3210073867380373e-07 7.2994963290899011e-08 0.0000000000000000e+00  -1.1616385669035323e-07 6.9614648984991439e-08 0.0000000000000000e+00  -1.3561314911601204e-07 7.5530649510120630e-08 0.0000000000000000e+00  -1.1955118006752523e-07 7.2174372922039972e-08 0.0000000000000000e+00  -1.3909349256729110e-07 7.8076004358504013e-08 0.0000000000000000e+00  -1.2291071303637313e-07 7.4743618118992394e-08 0.0000000000000000e+00  -1.4254271315098230e-07 8.0631022087042975e-08 0.0000000000000000e+00  -1.2624300561026105e-07 7.7322350013705425e-08 0.0000000000000000e+00  -1.4596168990021738e-07 8.3195692824063591e-08 0.0000000000000000e+00  -1.2954859076840474e-07 7.9910535846653901e-08 0.0000000000000000e+00  -1.4935124290296804e-07 8.5770002723043325e-08 0.0000000000000000e+00  -1.3282798422157807e-07 8.2508143834168716e-08 0.0000000000000000e+00  -1.5271213876495865e-07 8.8353934133036540e-08 0.0000000000000000e+00  -1.3608168437900029e-07 8.5115142525615949e-08 0.0000000000000000e+00  -1.5604509547337089e-07 9.0947465785874157e-08 0.0000000000000000e+00  -1.3931017247358902e-07 8.7731500309654381e-08 0.0000000000000000e+00  -1.5935078673359255e-07 9.3550572994771651e-08 0.0000000000000000e+00  -1.4251391281044726e-07 9.0357185041108536e-08 0.0000000000000000e+00  -1.6262984584201281e-07 9.6163227859619845e-08 0.0000000000000000e+00  -1.4569335310979791e-07 9.2992163765177800e-08 0.0000000000000000e+00  -1.6588286914986687e-07 9.8785399474937341e-08 0.0000000000000000e+00  -1.4884892492084030e-07 9.5636402519922468e-08 0.0000000000000000e+00  -1.6911041916619366e-07 1.0141705413716289e-07 0.0000000000000000e+00  -1.5198104408736202e-07 9.8289866201418763e-08 0.0000000000000000e+00  -1.7231302734193696e-07 1.0405815554861196e-07 0.0000000000000000e+00  -1.5509011124953646e-07 1.0095251847879840e-07 0.0000000000000000e+00  -1.7549119657198948e-07 1.0670866501600771e-07 0.0000000000000000e+00  -1.5817651236932670e-07 1.0362432174871352e-07 0.0000000000000000e+00  -1.7864540344742859e-07 1.0936854164200387e-07 0.0000000000000000e+00  -1.6124061926938769e-07 1.0630523712067903e-07 0.0000000000000000e+00  -1.8177610028622153e-07 1.1203774250855107e-07 0.0000000000000000e+00  -1.6428279017739201e-07 1.0899522442631873e-07 0.0000000000000000e+00  -1.8488371696723071e-07 1.1471622285132207e-07 0.0000000000000000e+00  -1.6730337026939196e-07 1.1169424224684106e-07 0.0000000000000000e+00  -1.8796866258934239e-07 1.1740393622471067e-07 0.0000000000000000e+00  -1.7030269220722140e-07 1.1440224795414168e-07 0.0000000000000000e+00  -1.9103132697490605e-07 1.2010083465716181e-07 0.0000000000000000e+00  -1.7328107666607239e-07 1.1711919776181188e-07 0.0000000000000000e+00  -1.9407208203438779e-07 1.2280686879678398e-07 0.0000000000000000e+00  -1.7623883284931967e-07 1.1984504678305915e-07 0.0000000000000000e+00  -1.9709128300713437e-07 1.2552198804734680e-07 0.0000000000000000e+00  -1.7917625898843313e-07 1.2257974909314662e-07 0.0000000000000000e+00  -2.0008926959138751e-07 1.2824614069488195e-07 0.0000000000000000e+00  -1.8209364282643188e-07 1.2532325779444856e-07 0.0000000000000000e+00  -2.0306636697515889e-07 1.3097927402519308e-07 0.0000000000000000e+00  -1.8499126208383989e-07 1.2807552508262212e-07 0.0000000000000000e+00  -2.0602288677823204e-07 1.3372133443264225e-07 0.0000000000000000e+00  -1.8786938490651252e-07 1.3083650231272929e-07 0.0000000000000000e+00  -2.0895912791437468e-07 1.3647226752062239e-07 0.0000000000000000e+00  -1.9072827029502000e-07 1.3360614006440816e-07 0.0000000000000000e+00  -2.1187537738181458e-07 1.3923201819415263e-07 0.0000000000000000e+00  -1.9356816851553358e-07 1.3638438820541617e-07 0.0000000000000000e+00  -2.1477191098912686e-07 1.4200053074504644e-07 0.0000000000000000e+00  -1.9638932149236725e-07 1.3917119595304403e-07 0.0000000000000000e+00  -2.1764899402287457e-07 1.4477774893010701e-07 0.0000000000000000e+00  -1.9919196318247549e-07 1.4196651193304281e-07 0.0000000000000000e+00  -2.2050688186264874e-07 1.4756361604280009e-07 0.0000000000000000e+00  -2.0197631993233083e-07 1.4477028423582320e-07 0.0000000000000000e+00  -2.2334582054853650e-07 1.5035807497884428e-07 0.0000000000000000e+00  -2.0474261081769806e-07 1.4758246046977650e-07 0.0000000000000000e+00  -2.2616604730549434e-07 1.5316106829614616e-07 0.0000000000000000e+00  -2.0749104796687498e-07 1.5040298781164029e-07 0.0000000000000000e+00  -2.2896779102862945e-07 1.5597253826948915e-07 0.0000000000000000e+00  -2.1022183686802341e-07 1.5323181305388989e-07 0.0000000000000000e+00  -2.3175127273296413e-07 1.5879242694036647e-07 0.0000000000000000e+00  -2.1293517666123513e-07 1.5606888264917901e-07 0.0000000000000000e+00  -2.3451670597088428e-07 1.6162067616232767e-07 0.0000000000000000e+00  -2.1563126041599487e-07 1.5891414275188849e-07 0.0000000000000000e+00  -2.3726429722013890e-07 1.6445722764218812e-07 0.0000000000000000e+00  -2.1831027539470514e-07 1.6176753925686580e-07 0.0000000000000000e+00  -2.3999424624496682e-07 1.6730202297742734e-07 0.0000000000000000e+00  -2.2097240330293435e-07 1.6462901783545760e-07 0.0000000000000000e+00  -2.4270674643266049e-07 1.7015500369008459e-07 0.0000000000000000e+00  -2.2361782052703800e-07 1.6749852396894963e-07 0.0000000000000000e+00  -2.4540198510765155e-07 1.7301611125743430e-07 0.0000000000000000e+00  -2.2624669835978954e-07 1.7037600297953603e-07 0.0000000000000000e+00  -2.4808014382499016e-07 1.7588528713970919e-07 0.0000000000000000e+00  -2.2885920321463719e-07 1.7326140005894616e-07 0.0000000000000000e+00  -2.5074139864491381e-07 1.7876247280511608e-07 0.0000000000000000e+00  -2.3145549682918353e-07 1.7615466029485795e-07 0.0000000000000000e+00  -2.5338592039003071e-07 1.8164760975237257e-07 0.0000000000000000e+00  -2.3403573645845863e-07 1.7905572869522739e-07 0.0000000000000000e+00  -2.5601387488650362e-07 1.8454063953097557e-07 0.0000000000000000e+00  -2.3660007505853736e-07 1.8196455021066055e-07 0.0000000000000000e+00  -2.5862542319048617e-07 1.8744150375939576e-07 0.0000000000000000e+00  -2.3914866146102260e-07 1.8488106975495394e-07 0.0000000000000000e+00  -2.6122072180094904e-07 1.9035014414137769e-07 0.0000000000000000e+00  -2.4168164053889543e-07 1.8780523222392176e-07 0.0000000000000000e+00  -2.6379992285992728e-07 1.9326650248050959e-07 0.0000000000000000e+00  -2.4419915336420355e-07 1.9073698251262686e-07 0.0000000000000000e+00  -2.6636317434113207e-07 1.9619052069321530e-07 0.0000000000000000e+00  -2.4670133735804224e-07 1.9367626553112486e-07 0.0000000000000000e+00  -2.6891062022777580e-07 1.9912214082030615e-07 0.0000000000000000e+00  -2.4918832643324638e-07 1.9662302621882669e-07 0.0000000000000000e+00  -2.7144240068040132e-07 2.0206130503722315e-07 0.0000000000000000e+00  -2.5166025113020715e-07 1.9957720955757977e-07 0.0000000000000000e+00  -2.7395865219541615e-07 2.0500795566308352e-07 0.0000000000000000e+00  -2.5411723874618048e-07 2.0253876058355976e-07 0.0000000000000000e+00  -2.7645950775499354e-07 2.0796203516864163e-07 0.0000000000000000e+00  -2.5655941345845892e-07 2.0550762439806329e-07 0.0000000000000000e+00  -2.7894509696893496e-07 2.1092348618326069e-07 0.0000000000000000e+00  -2.5898689644173984e-07 2.0848374617728337e-07 0.0000000000000000e+00  -2.8141554620903421e-07 2.1389225150098688e-07 0.0000000000000000e+00  -2.6139980598000498e-07 2.1146707118114524e-07 0.0000000000000000e+00  -2.8387097873645673e-07 2.1686827408580745e-07 0.0000000000000000e+00  -2.6379825757322197e-07 2.1445754476127588e-07 0.0000000000000000e+00  -2.8631151482258997e-07 2.1985149707616854e-07 0.0000000000000000e+00  -2.6618236403914480e-07 2.1745511236817377e-07 0.0000000000000000e+00  -2.8873727186378496e-07 2.2284186378882131e-07 0.0000000000000000e+00  -2.6855223561047471e-07 2.2045971955764294e-07 0.0000000000000000e+00  -2.9114836449039497e-07 2.2583931772206001e-07 0.0000000000000000e+00  -2.7090798002764674e-07 2.2347131199655038e-07 0.0000000000000000e+00  -2.9354490467045577e-07 2.2884380255840941e-07 0.0000000000000000e+00  -2.7324970262746292e-07 2.2648983546795960e-07 0.0000000000000000e+00  -2.9592700180834991e-07 2.3185526216681459e-07 0.0000000000000000e+00  -2.7557750642780065e-07 2.2951523587569276e-07 0.0000000000000000e+00  -2.9829476283876545e-07 2.3487364060438009e-07 0.0000000000000000e+00  -2.7789149220860745e-07 2.3254745924836800e-07 0.0000000000000000e+00  -3.0064829231622771e-07 2.3789888211770433e-07 0.0000000000000000e+00  -2.8019175858937320e-07 2.3558645174295499e-07 0.0000000000000000e+00  -3.0298769250047162e-07 2.4093093114384739e-07 0.0000000000000000e+00  -2.8247840210326650e-07 2.3863215964788911e-07 0.0000000000000000e+00  -3.0531306343790234e-07 2.4396973231097053e-07 0.0000000000000000e+00  -2.8475151726811219e-07 2.4168452938578216e-07 0.0000000000000000e+00  -3.0762450303936747e-07 2.4701523043868012e-07 0.0000000000000000e+00  -2.8701119665436839e-07 2.4474350751576453e-07 0.0000000000000000e+00  -3.0992210715445284e-07 2.5006737053810675e-07 0.0000000000000000e+00  -2.8925753095025971e-07 2.4780904073548808e-07 0.0000000000000000e+00  -3.1220596964250419e-07 2.5312609781174716e-07 0.0000000000000000e+00  -2.9149060902421366e-07 2.5088107588282318e-07 0.0000000000000000e+00  -3.1447618244054995e-07 2.5619135765309503e-07 0.0000000000000000e+00  -2.9371051798473221e-07 2.5395955993727432e-07 0.0000000000000000e+00  -3.1673283562830190e-07 2.5926309564608371e-07 0.0000000000000000e+00  -2.9591734323783051e-07 2.5704444002114019e-07 0.0000000000000000e+00  -3.1897601749039080e-07 2.6234125756436160e-07 0.0000000000000000e+00  -2.9811116854216225e-07 2.6013566340044159e-07 0.0000000000000000e+00  -3.2120581457598564e-07 2.6542578937041999e-07 0.0000000000000000e+00  -3.0029207606194851e-07 2.6323317748563866e-07 0.0000000000000000e+00  -3.2342231175593512e-07 2.6851663721459103e-07 0.0000000000000000e+00  -3.0246014641781104e-07 2.6633692983215727e-07 0.0000000000000000e+00  -3.2562559227756432e-07 2.7161374743393156e-07 0.0000000000000000e+00  -3.0461545873562188e-07 2.6944686814074161e-07 0.0000000000000000e+00  -3.2781573781724500e-07 2.7471706655100828e-07 0.0000000000000000e+00  -3.0675809069345580e-07 2.7256294025765220e-07 0.0000000000000000e+00  -3.2999282853085349e-07 2.7782654127259579e-07 0.0000000000000000e+00  -3.0888811856673853e-07 2.7568509417472119e-07 0.0000000000000000e+00  -3.3215694310222762e-07 2.8094211848830187e-07 0.0000000000000000e+00  -3.1100561727168128e-07 2.7881327802928317e-07 0.0000000000000000e+00  -3.3430815878971684e-07 2.8406374526913010e-07 0.0000000000000000e+00  -3.1311066040707338e-07 2.8194744010399149e-07 0.0000000000000000e+00  -3.3644655147092391e-07 2.8719136886598844e-07 0.0000000000000000e+00  -3.1520332029451689e-07 2.8508752882653374e-07 0.0000000000000000e+00  -3.3857219568572665e-07 2.9032493670815605e-07 0.0000000000000000e+00  -3.1728366801716990e-07 2.8823349276925663e-07 0.0000000000000000e+00  -3.4068516467766076e-07 2.9346439640171410e-07 0.0000000000000000e+00  -3.1935177345707093e-07 2.9138528064871135e-07 0.0000000000000000e+00  -3.4278553043374265e-07 2.9660969572794764e-07 0.0000000000000000e+00  -3.2140770533110296e-07 2.9454284132512732e-07 0.0000000000000000e+00  -3.4487336372280981e-07 2.9976078264172885e-07 0.0000000000000000e+00  -3.2345153122566694e-07 2.9770612380182495e-07 0.0000000000000000e+00  -3.4694873413244152e-07 3.0291760526988419e-07 0.0000000000000000e+00  -3.2548331763011235e-07 3.0087507722457317e-07 0.0000000000000000e+00  -3.4901171010453126e-07 3.0608011190955206e-07 0.0000000000000000e+00  -3.2750312996898564e-07 3.0404965088090106e-07 0.0000000000000000e+00  -3.5106235896957167e-07 3.0924825102653802e-07 0.0000000000000000e+00  -3.2951103263314943e-07 3.0722979419936898e-07 0.0000000000000000e+00  -3.5310074697970733e-07 3.1242197125366889e-07 0.0000000000000000e+00  -3.3150708900981548e-07 3.1041545674880447e-07 0.0000000000000000e+00  -3.3349136151154317e-07 3.1360658823750997e-07 0.0000000000000000e+00  -3.5321580024224382e-09 1.5125498312554924e-09 0.0000000000000000e+00  0.0000000000000000e+00 0.0000000000000000e+00 0.0000000000000000e+00  -7.0669447753861228e-09 3.1182293598574746e-09 0.0000000000000000e+00  -1.0607321350657224e-08 4.8146064986320574e-09 0.0000000000000000e+00  -1.4153922448347487e-08 6.5959350385076794e-09 0.0000000000000000e+00  -1.7705954359331167e-08 8.4550295721765970e-09 0.0000000000000000e+00  -2.1261789422706996e-08 1.0384347393121868e-08 0.0000000000000000e+00  -2.4819356625169065e-08 1.2376584016709487e-08 0.0000000000000000e+00  -2.8376395258848751e-08 1.4424974891793350e-08 0.0000000000000000e+00  -3.1930616710664190e-08 1.6523423386618657e-08 0.0000000000000000e+00  -3.5479804768113711e-08 1.8666529257121589e-08 0.0000000000000000e+00  -3.9021874944147170e-08 2.0849562910634118e-08 0.0000000000000000e+00  -4.2554906664482480e-08 2.3068412687215999e-08 0.0000000000000000e+00  -4.6077157666141197e-08 2.5319521140241078e-08 0.0000000000000000e+00  -4.9587066917500292e-08 2.7599819381839128e-08 0.0000000000000000e+00  -5.3083250312808804e-08 2.9906664358531818e-08 0.0000000000000000e+00  -5.6564491999040557e-08 3.2237781416415942e-08 0.0000000000000000e+00  -6.0029733245763089e-08 3.4591213057491918e-08 0.0000000000000000e+00  -6.3478060125022619e-08 3.6965273972535997e-08 0.0000000000000000e+00  -6.6908690830663924e-08 3.9358512006772126e-08 0.0000000000000000e+00  -7.0320963169172447e-08 4.1769674514395332e-08 0.0000000000000000e+00  -7.3714322552429883e-08 4.4197679489407785e-08 0.0000000000000000e+00  -7.7088310686422618e-08 4.6641590864058353e-08 0.0000000000000000e+00  -8.0442555058311960e-08 4.9100597407007919e-08 0.0000000000000000e+00  -8.3776759263296283e-08 5.1573994710450989e-08 0.0000000000000000e+00  -8.7090694172733256e-08 5.4061169817075570e-08 0.0000000000000000e+00  -9.0384189919440773e-08 5.6561588097632003e-08 0.0000000000000000e+00  -9.3657128660408855e-08 5.9074782044914473e-08 0.0000000000000000e+00  -9.6909438068191974e-08 6.1600341698897157e-08 0.0000000000000000e+00  -1.0014108549785072e-07 6.4137906460406471e-08 0.0000000000000000e+00  -1.0335207277495833e-07 6.6687158087373842e-08 0.0000000000000000e+00  -1.0654243155084816e-07 6.9247814698978059e-08 0.0000000000000000e+00  -1.0971221917323232e-07 7.1819625639510200e-08 0.0000000000000000e+00  -1.1286151502305107e-07 7.4402367076227342e-08 0.0000000000000000e+00  -1.1599041727159563e-07 7.6995838224409976e-08 0.0000000000000000e+00  -1.1909904001533098e-07 7.9599858108838029e-08 0.0000000000000000e+00  -1.2218751074926889e-07 8.2214262784413305e-08 0.0000000000000000e+00  -1.2525596814310885e-07 8.4838902950081438e-08 0.0000000000000000e+00  -1.2830456008760123e-07 8.7473641899879215e-08 0.0000000000000000e+00  -1.3133344198164087e-07 9.0118353763128918e-08 0.0000000000000000e+00  -1.3434277523346423e-07 9.2772921992760543e-08 0.0000000000000000e+00  -1.3733272595197899e-07 9.5437238066659560e-08 0.0000000000000000e+00  -1.4030346380669096e-07 9.8111200371973521e-08 0.0000000000000000e+00  -1.4325516103693230e-07 1.0079471324660535e-07 0.0000000000000000e+00  -1.4618799159313316e-07 1.0348768615578689e-07 0.0000000000000000e+00  -1.4910213039472066e-07 1.0619003298475842e-07 0.0000000000000000e+00  -1.5199775269090506e-07 1.0890167143125998e-07 0.0000000000000000e+00  -1.5487503351212078e-07 1.1162252248383687e-07 0.0000000000000000e+00  -1.5773414720124196e-07 1.1435250997392667e-07 0.0000000000000000e+00  -1.6057526701491059e-07 1.1709156019138476e-07 0.0000000000000000e+00  -1.6339856478641053e-07 1.1983960155455260e-07 0.0000000000000000e+00  -1.662042106424