<?xml version="1.0"?>
<VTKFile type="UnstructuredGrid"  version="0.1"  >
<UnstructuredGrid>
<Piece  NumberOfPoints="8462" NumberOfCells="16533">
<Points>
<DataArray  type="Float64"  NumberOfComponents="3"  format="ascii">0.46875 0.9999999999999998 0  0.470703125 0.9999999999999999 0  0.470703125 0.9863281249999999 0  0.47265625 0.9999999999999999 0  0.47265625 0.9863281249999999 0  0.474609375 0.9999999999999998 0  0.474609375 0.9863281249999998 0  0.4765625 0.9999999999999999 0  0.4765625 0.9863281249999999 0  0.478515625 1 0  0.478515625 0.986328125 0  0.48046875 0.9999999999999999 0  0.48046875 0.9863281249999999 0  0.482421875 0.9999999999999999 0  0.482421875 0.9863281249999999 0  0.484375 1 0  0.484375 0.986328125 0  0.486328125 0.9999999999999999 0  0.486328125 0.9863281249999999 0  0.48828125 0.9999999999999999 0  0.48828125 0.9863281249999999 0  0.490234375 1 0  0.490234375 0.986328125 0  0.4921875 1 0  0.4921875 0.986328125 0  0.494140625 0.9999999999999999 0  0.494140625 0.9863281249999999 0  0.49609375 1 0  0.49609375 0.986328125 0  0.498046875 1 0  0.498046875 0.986328125 0  0.5 1 0  0.5 0.986328125 0  0.501953125 1 0  0.501953125 0.9863281250000002 0  0.50390625 1 0  0.50390625 0.986328125 0  0.505859375 1 0  0.505859375 0.986328125 0  0.5078125 1 0  0.5078125 0.9863281250000002 0  0.509765625 1 0  0.509765625 0.986328125 0  0.51171875 1 0  0.51171875 0.9863281250000002 0  0.513671875 1 0  0.513671875 0.9863281250000002 0  0.515625 1 0  0.515625 0.986328125 0  0.517578125 1 0  0.517578125 0.9863281250000002 0  0.51953125 1 0  0.51953125 0.986328125 0  0.521484375 1 0  0.521484375 0.986328125 0  0.5234375 0.9999999999999999 0  0.5234375 0.9863281249999999 0  0.525390625 0.9999999999999999 0  0.525390625 0.9863281249999999 0  0.52734375 0.9999999999999998 0  0.52734375 0.9863281249999998 0  0.529296875 0.9999999999999999 0  0.529296875 0.9863281249999999 0  0.53125 0.9999999999999999 0  0.53125 0.9863281249999999 0  0.533203125 0.9999999999999999 0  0.533203125 0.9863281249999999 0  0.53515625 0.9999999999999999 0  0.53515625 0.9863281249999999 0  0.537109375 0.9999999999999999 0  0.537109375 0.9863281249999999 0  0.5390625 1 0  0.5390625 0.986328125 0  0.541015625 0.9999999999999999 0  0.541015625 0.9863281249999999 0  0.54296875 1 0  0.54296875 0.986328125 0  0.544921875 1 0  0.544921875 0.986328125 0  0.546875 1 0  0.546875 0.986328125 0  0.548828125 1 0  0.548828125 0.986328125 0  0.55078125 1 0  0.55078125 0.986328125 0  0.552734375 1 0  0.552734375 0.986328125 0  0.5546875 1 0  0.5546875 0.986328125 0  0.556640625 1 0  0.556640625 0.986328125 0  0.55859375 1 0  0.55859375 0.986328125 0  0.560546875 1 0  0.560546875 0.986328125 0  0.5625 0.9999999999999999 0  0.5625 0.9863281249999999 0  0.564453125 1 0  0.564453125 0.986328125 0  0.56640625 1 0  0.56640625 0.986328125 0  0.568359375 1 0  0.568359375 0.986328125 0  0.5703125 1 0  0.5703125 0.986328125 0  0.572265625 1 0  0.572265625 0.9863281250000002 0  0.57421875 1 0  0.57421875 0.986328125 0  0.576171875 1 0  0.576171875 0.986328125 0  0.578125 1 0  0.578125 0.9863281250000002 0  0.580078125 1 0  0.580078125 0.986328125 0  0.58203125 1 0  0.58203125 0.986328125 0  0.583984375 1 0  0.583984375 0.9863281250000002 0  0.5859375 1 0  0.5859375 0.986328125 0  0.587890625 1 0  0.587890625 0.9863281250000002 0  0.58984375 0.9999999999999999 0  0.58984375 0.9863281249999999 0  0.591796875 0.9999999999999999 0  0.591796875 0.9863281249999999 0  0.59375 0.9999999999999999 0  0.59375 0.9863281249999999 0  0.595703125 0.9999999999999999 0  0.595703125 0.9863281249999999 0  0.59765625 0.9999999999999999 0  0.59765625 0.9863281249999999 0  0.599609375 0.9999999999999999 0  0.599609375 0.9863281249999999 0  0.6015625 0.9999999999999999 0  0.6015625 0.9863281249999999 0  0.603515625 1 0  0.603515625 0.986328125 0  0.60546875 1 0  0.60546875 0.986328125 0  0.607421875 1 0  0.607421875 0.986328125 0  0.609375 1 0  0.609375 0.986328125 0  0.611328125 0.9999999999999999 0  0.611328125 0.9863281249999999 0  0.61328125 1 0  0.61328125 0.986328125 0  0.615234375 1 0  0.615234375 0.986328125 0  0.6171875 0.9999999999999999 0  0.6171875 0.9863281249999999 0  0.619140625 1 0  0.619140625 0.986328125 0  0.62109375 1 0  0.62109375 0.986328125 0  0.623046875 0.9999999999999999 0  0.623046875 0.9863281249999999 0  0.625 1 0  0.625 0.986328125 0  0.626953125 1 0  0.626953125 0.986328125 0  0.62890625 1 0  0.62890625 0.986328125 0  0.630859375 1 0  0.630859375 0.986328125 0  0.6328125 1 0  0.6328125 0.986328125 0  0.634765625 0.9999999999999999 0  0.634765625 0.9863281249999999 0  0.63671875 0.9999999999999999 0  0.63671875 0.9863281249999999 0  0.638671875 0.9999999999999999 0  0.638671875 0.9863281249999999 0  0.640625 1 0  0.640625 0.986328125 0  0.642578125 0.9999999999999999 0  0.642578125 0.9863281249999999 0  0.64453125 0.9999999999999999 0  0.64453125 0.9863281249999999 0  0.646484375 1 0  0.646484375 0.986328125 0  0.6484375 0.9999999999999999 0  0.6484375 0.9863281249999999 0  0.650390625 0.9999999999999999 0  0.650390625 0.9863281249999999 0  0.65234375 1 0  0.65234375 0.986328125 0  0.654296875 0.9999999999999999 0  0.654296875 0.9863281249999999 0  0.65625 1 0  0.65625 0.986328125 0  0.658203125 1 0  0.658203125 0.986328125 0  0.66015625 0.9999999999999999 0  0.66015625 0.9863281249999999 0  0.662109375 1 0  0.662109375 0.9863281250000002 0  0.6640625 1 0  0.6640625 0.986328125 0  0.666015625 1 0  0.666015625 0.986328125 0  0.66796875 1 0  0.66796875 0.9863281250000002 0  0.669921875 1 0  0.669921875 0.986328125 0  0.671875 1 0  0.671875 0.986328125 0  0.673828125 0.9999999999999999 0  0.673828125 0.9863281249999999 0  0.67578125 1 0  0.67578125 0.986328125 0  0.677734375 0.9999999999999999 0  0.677734375 0.9863281249999999 0  0.6796875 1 0  0.6796875 0.986328125 0  0.681640625 1 0  0.681640625 0.986328125 0  0.68359375 0.9999999999999999 0  0.68359375 0.9863281249999999 0  0.685546875 1 0  0.685546875 0.986328125 0  0.6875 1 0  0.6875 0.986328125 0  0.689453125 1 0  0.689453125 0.986328125 0  0.69140625 1 0  0.69140625 0.986328125 0  0.693359375 0.9999999999999999 0  0.693359375 0.9863281249999999 0  0.6953125 0.9999999999999999 0  0.6953125 0.9863281249999999 0  0.697265625 1 0  0.697265625 0.986328125 0  0.69921875 1 0  0.69921875 0.9863281250000002 0  0.701171875 0.9999999999999999 0  0.701171875 0.9863281249999999 0  0.703125 1 0  0.703125 0.986328125 0  0.705078125 1 0  0.705078125 0.986328125 0  0.70703125 1 0  0.70703125 0.986328125 0  0.708984375 1 0  0.708984375 0.986328125 0  0.7109375 1 0  0.7109375 0.986328125 0  0.712890625 1 0  0.712890625 0.986328125 0  0.71484375 0.9999999999999999 0  0.71484375 0.9863281249999999 0  0.716796875 0.9863281249999999 0  0.47265625 0.9726562499999999 0  0.474609375 0.9726562499999998 0  0.4765625 0.9726562499999999 0  0.478515625 0.97265625 0  0.48046875 0.9726562499999999 0  0.482421875 0.9726562499999999 0  0.484375 0.97265625 0  0.486328125 0.9726562499999999 0  0.48828125 0.9726562499999999 0  0.490234375 0.97265625 0  0.4921875 0.97265625 0  0.494140625 0.9726562499999999 0  0.49609375 0.97265625 0  0.498046875 0.97265625 0  0.5 0.97265625 0  0.501953125 0.9726562500000002 0  0.50390625 0.97265625 0  0.505859375 0.97265625 0  0.5078125 0.9726562500000002 0  0.509765625 0.97265625 0  0.51171875 0.9726562500000002 0  0.513671875 0.9726562500000002 0  0.515625 0.97265625 0  0.517578125 0.9726562500000002 0  0.51953125 0.97265625 0  0.521484375 0.97265625 0  0.5234375 0.9726562499999999 0  0.525390625 0.9726562499999999 0  0.52734375 0.9726562499999998 0  0.529296875 0.9726562499999999 0  0.53125 0.9726562499999999 0  0.533203125 0.9726562499999999 0  0.53515625 0.9726562499999999 0  0.537109375 0.9726562499999999 0  0.5390625 0.97265625 0  0.541015625 0.9726562499999999 0  0.54296875 0.97265625 0  0.544921875 0.97265625 0  0.546875 0.97265625 0  0.548828125 0.97265625 0  0.55078125 0.97265625 0  0.552734375 0.97265625 0  0.5546875 0.97265625 0  0.556640625 0.97265625 0  0.55859375 0.97265625 0  0.560546875 0.97265625 0  0.5625 0.9726562499999999 0  0.564453125 0.97265625 0  0.56640625 0.97265625 0  0.568359375 0.97265625 0  0.5703125 0.97265625 0  0.572265625 0.9726562500000002 0  0.57421875 0.97265625 0  0.576171875 0.97265625 0  0.578125 0.9726562500000002 0  0.580078125 0.97265625 0  0.58203125 0.97265625 0  0.583984375 0.9726562500000002 0  0.5859375 0.97265625 0  0.587890625 0.9726562500000002 0  0.58984375 0.9726562499999999 0  0.591796875 0.9726562499999999 0  0.59375 0.9726562499999999 0  0.595703125 0.9726562499999999 0  0.59765625 0.9726562499999999 0  0.599609375 0.9726562499999999 0  0.6015625 0.9726562499999999 0  0.603515625 0.97265625 0  0.60546875 0.97265625 0  0.607421875 0.97265625 0  0.609375 0.97265625 0  0.611328125 0.9726562499999999 0  0.61328125 0.97265625 0  0.615234375 0.97265625 0  0.6171875 0.9726562499999999 0  0.619140625 0.97265625 0  0.62109375 0.97265625 0  0.623046875 0.9726562499999999 0  0.625 0.97265625 0  0.626953125 0.97265625 0  0.62890625 0.97265625 0  0.630859375 0.97265625 0  0.6328125 0.97265625 0  0.634765625 0.9726562499999999 0  0.63671875 0.9726562499999999 0  0.638671875 0.9726562499999999 0  0.640625 0.97265625 0  0.642578125 0.9726562499999999 0  0.64453125 0.9726562499999999 0  0.646484375 0.97265625 0  0.6484375 0.9726562499999999 0  0.650390625 0.9726562499999999 0  0.65234375 0.97265625 0  0.654296875 0.9726562499999999 0  0.65625 0.97265625 0  0.658203125 0.97265625 0  0.66015625 0.9726562499999999 0  0.662109375 0.9726562500000002 0  0.6640625 0.97265625 0  0.666015625 0.97265625 0  0.66796875 0.9726562500000002 0  0.669921875 0.97265625 0  0.671875 0.97265625 0  0.673828125 0.9726562499999999 0  0.67578125 0.97265625 0  0.677734375 0.9726562499999999 0  0.6796875 0.97265625 0  0.681640625 0.97265625 0  0.68359375 0.9726562499999999 0  0.685546875 0.97265625 0  0.6875 0.97265625 0  0.689453125 0.97265625 0  0.69140625 0.97265625 0  0.693359375 0.972656249
[...]
<PointData  Vectors="f_16"> 
<DataArray  type="Float64"  Name="f_16"  NumberOfComponents="3" format="ascii">0.0000000000000000e+00 9.9999999999999978e-01 0.0000000000000000e+00  0.0000000000000000e+00 9.9999999999999989e-01 0.0000000000000000e+00  0.0000000000000000e+00 9.8437499999999989e-01 0.0000000000000000e+00  0.0000000000000000e+00 9.9999999999999989e-01 0.0000000000000000e+00  0.0000000000000000e+00 9.8437499999999989e-01 0.0000000000000000e+00  0.0000000000000000e+00 9.9999999999999978e-01 0.0000000000000000e+00  0.0000000000000000e+00 9.8437499999999978e-01 0.0000000000000000e+00  0.0000000000000000e+00 9.9999999999999989e-01 0.0000000000000000e+00  0.0000000000000000e+00 9.8437499999999989e-01 0.0000000000000000e+00  0.0000000000000000e+00 1.0000000000000000e+00 0.0000000000000000e+00  0.0000000000000000e+00 9.8437500000000000e-01 0.0000000000000000e+00  0.0000000000000000e+00 9.9999999999999989e-01 0.0000000000000000e+00  0.0000000000000000e+00 9.8437499999999989e-01 0.0000000000000000e+00  0.0000000000000000e+00 9.9999999999999989e-01 0.0000000000000000e+00  0.0000000000000000e+00 9.8437499999999989e-01 0.0000000000000000e+00  0.0000000000000000e+00 1.0000000000000000e+00 0.0000000000000000e+00  0.0000000000000000e+00 9.8437500000000000e-01 0.0000000000000000e+00  0.0000000000000000e+00 9.9999999999999989e-01 0.0000000000000000e+00  0.0000000000000000e+00 9.8437499999999989e-01 0.0000000000000000e+00  0.0000000000000000e+00 9.9999999999999989e-01 0.0000000000000000e+00  0.0000000000000000e+00 9.8437499999999989e-01 0.0000000000000000e+00  0.0000000000000000e+00 1.0000000000000000e+00 0.0000000000000000e+00  0.0000000000000000e+00 9.8437500000000000e-01 0.0000000000000000e+00  0.0000000000000000e+00 1.0000000000000000e+00 0.0000000000000000e+00  0.0000000000000000e+00 9.8437500000000000e-01 0.0000000000000000e+00  0.0000000000000000e+00 9.9999999999999989e-01 0.0000000000000000e+00  0.0000000000000000e+00 9.8437499999999989e-01 0.0000000000000000e+00  0.0000000000000000e+00 1.0000000000000000e+00 0.0000000000000000e+00  0.0000000000000000e+00 9.8437500000000000e-01 0.0000000000000000e+00  0.0000000000000000e+00 1.0000000000000000e+00 0.0000000000000000e+00  0.0000000000000000e+00 9.8437500000000000e-01 0.0000000000000000e+00  0.0000000000000000e+00 1.0000000000000000e+00 0.0000000000000000e+00  0.0000000000000000e+00 9.8437500000000000e-01 0.0000000000000000e+00  0.0000000000000000e+00 1.0000000000000002e+00 0.0000000000000000e+00  0.0000000000000000e+00 9.8437500000000022e-01 0.0000000000000000e+00  0.0000000000000000e+00 1.0000000000000000e+00 0.0000000000000000e+00  0.0000000000000000e+00 9.8437500000000000e-01 0.0000000000000000e+00  0.0000000000000000e+00 1.0000000000000000e+00 0.0000000000000000e+00  0.0000000000000000e+00 9.8437500000000000e-01 0.0000000000000000e+00  0.0000000000000000e+00 1.0000000000000002e+00 0.0000000000000000e+00  0.0000000000000000e+00 9.8437500000000022e-01 0.0000000000000000e+00  0.0000000000000000e+00 1.0000000000000000e+00 0.0000000000000000e+00  0.0000000000000000e+00 9.8437500000000000e-01 0.0000000000000000e+00  0.0000000000000000e+00 1.0000000000000002e+00 0.0000000000000000e+00  0.0000000000000000e+00 9.8437500000000022e-01 0.0000000000000000e+00  0.0000000000000000e+00 1.0000000000000002e+00 0.0000000000000000e+00  0.0000000000000000e+00 9.8437500000000022e-01 0.0000000000000000e+00  0.0000000000000000e+00 1.0000000000000000e+00 0.0000000000000000e+00  0.0000000000000000e+00 9.8437500000000000e-01 0.0000000000000000e+00  0.0000000000000000e+00 1.0000000000000002e+00 0.0000000000000000e+00  0.0000000000000000e+00 9.8437500000000022e-01 0.0000000000000000e+00  0.0000000000000000e+00 1.0000000000000000e+00 0.0000000000000000e+00  0.0000000000000000e+00 9.8437500000000000e-01 0.0000000000000000e+00  0.0000000000000000e+00 1.0000000000000000e+00 0.0000000000000000e+00  0.0000000000000000e+00 9.8437500000000000e-01 0.0000000000000000e+00  0.0000000000000000e+00 9.9999999999999989e-01 0.0000000000000000e+00  0.0000000000000000e+00 9.8437499999999989e-01 0.0000000000000000e+00  0.0000000000000000e+00 9.9999999999999989e-01 0.0000000000000000e+00  0.0000000000000000e+00 9.8437499999999989e-01 0.0000000000000000e+00  0.0000000000000000e+00 9.9999999999999978e-01 0.0000000000000000e+00  0.0000000000000000e+00 9.8437499999999978e-01 0.0000000000000000e+00  0.0000000000000000e+00 9.9999999999999989e-01 0.0000000000000000e+00  0.0000000000000000e+00 9.8437499999999989e-01 0.0000000000000000e+00  0.0000000000000000e+00 9.9999999999999989e-01 0.0000000000000000e+00  0.0000000000000000e+00 9.8437499999999989e-01 0.0000000000000000e+00  0.0000000000000000e+00 9.9999999999999989e-01 0.0000000000000000e+00  0.0000000000000000e+00 9.8437499999999989e-01 0.0000000000000000e+00  0.0000000000000000e+00 9.9999999999999989e-01 0.0000000000000000e+00  0.0000000000000000e+00 9.8437499999999989e-01 0.0000000000000000e+00  0.0000000000000000e+00 9.9999999999999989e-01 0.0000000000000000e+00  0.0000000000000000e+00 9.8437499999999989e-01 0.0000000000000000e+00  0.0000000000000000e+00 1.0000000000000000e+00 0.0000000000000000e+00  0.0000000000000000e+00 9.8437500000000000e-01 0.0000000000000000e+00  0.0000000000000000e+00 9.9999999999999989e-01 0.0000000000000000e+00  0.0000000000000000e+00 9.8437499999999989e-01 0.0000000000000000e+00  0.0000000000000000e+00 1.0000000000000000e+00 0.0000000000000000e+00  0.0000000000000000e+00 9.8437500000000000e-01 0.0000000000000000e+00  0.0000000000000000e+00 1.0000000000000000e+00 0.0000000000000000e+00  0.0000000000000000e+00 9.8437500000000000e-01 0.0000000000000000e+00  0.0000000000000000e+00 1.0000000000000000e+00 0.0000000000000000e+00  0.0000000000000000e+00 9.8437500000000000e-01 0.0000000000000000e+00  0.0000000000000000e+00 1.0000000000000000e+00 0.0000000000000000e+00  0.0000000000000000e+00 9.8437500000000000e-01 0.0000000000000000e+00  0.0000000000000000e+00 1.0000000000000000e+00 0.0000000000000000e+00  0.0000000000000000e+00 9.8437500000000000e-01 0.0000000000000000e+00  0.0000000000000000e+00 1.0000000000000000e+00 0.0000000000000000e+00  0.0000000000000000e+00 9.8437500000000000e-01 0.0000000000000000e+00  0.0000000000000000e+00 1.0000000000000000e+00 0.0000000000000000e+00  0.0000000000000000e+00 9.8437500000000000e-01 0.0000000000000000e+00  0.0000000000000000e+00 1.0000000000000000e+00 0.0000000000000000e+00  0.0000000000000000e+00 9.8437500000000000e-01 0.0000000000000000e+00  0.0000000000000000e+00 1.0000000000000000e+00 0.0000000000000000e+00  0.0000000000000000e+00 9.8437500000000000e-01 0.0000000000000000e+00  0.0000000000000000e+00 1.0000000000000000e+00 0.0000000000000000e+00  0.0000000000000000e+00 9.8437500000000000e-01 0.0000000000000000e+00  0.0000000000000000e+00 9.9999999999999989e-01 0.0000000000000000e+00  0.0000000000000000e+00 9.8437499999999989e-01 0.0000000000000000e+00  0.0000000000000000e+00 1.0000000000000000e+00 0.0000000000000000e+00  0.0000000000000000e+00 9.8437500000000000e-01 0.0000000000000000e+00  0.0000000000000000e+00 1.0000000000000000e+00 0.0000000000000000e+00  0.0000000000000000e+00 9.8437500000000000e-01 0.0000000000000000e+00  0.0000000000000000e+00 1.0000000000000000e+00 0.0000000000000000e+00  0.0000000000000000e+00 9.8437500000000000e-01 0.0000000000000000e+00  0.0000000000000000e+00 1.0000000000000000e+00 0.0000000000000000e+00  0.0000000000000000e+00 9.8437500000000000e-01 0.0000000000000000e+00  0.0000000000000000e+00 1.0000000000000002e+00 0.0000000000000000e+00  0.0000000000000000e+00 9.8437500000000022e-01 0.0000000000000000e+00  0.0000000000000000e+00 1.0000000000000000e+00 0.0000000000000000e+00  0.0000000000000000e+00 9.8437500000000000e-01 0.0000000000000000e+00  0.0000000000000000e+00 1.0000000000000000e+00 0.0000000000000000e+00  0.0000000000000000e+00 9.8437500000000000e-01 0.0000000000000000e+00  0.0000000000000000e+00 1.0000000000000002e+00 0.0000000000000000e+00  0.0000000000000000e+00 9.8437500000000022e-01 0.0000000000000000e+00  0.0000000000000000e+00 1.0000000000000000e+00 0.0000000000000000e+00  0.0000000000000000e+00 9.8437500000000000e-01 0.0000000000000000e+00  0.0000000000000000e+00 1.0000000000000000e+00 0.0000000000000000e+00  0.0000000000000000e+00 9.8437500000000000e-01 0.0000000000000000e+00  0.0000000000000000e+00 1.0000000000000002e+00 0.0000000000000000e+00  0.0000000000000000e+00 9.8437500000000022e-01 0.0000000000000000e+00  0.0000000000000000e+00 1.0000000000000000e+00 0.0000000000000000e+00  0.0000000000000000e+00 9.8437500000000000e-01 0.0000000000000000e+00  0.0000000000000000e+00 1.0000000000000002e+00 0.0000000000000000e+00  0.0000000000000000e+00 9.8437500000000022e-01 0.0000000000000000e+00  0.0000000000000000e+00 9.9999999999999989e-01 0.0000000000000000e+00  0.0000000000000000e+00 9.8437499999999989e-01 0.0000000000000000e+00  0.0000000000000000e+00 9.9999999999999989e-01 0.0000000000000000e+00  0.0000000000000000e+00 9.8437499999999989e-01 0.0000000000000000e+00  0.0000000000000000e+00 9.9999999999999989e-01 0.0000000000000000e+00  0.0000000000000000e+00 9.8437499999999989e-01 0.0000000000000000e+00  0.0000000000000000e+00 9.9999999999999989e-01 0.0000000000000000e+00  0.0000000000000000e+00 9.8437499999999989e-01 0.0000000000000000e+00  0.0000000000000000e+00 9.9999999999999989e-01 0.0000000000000000e+00  0.0000000000000000e+00 9.8437499999999989e-01 0.0000000000000000e+00  0.0000000000000000e+00 9.9999999999999989e-01 0.0000000000000000e+00  0.0000000000000000e+00 9.8437499999999989e-01 0.0000000000000000e+00  0.0000000000000000e+00 9.9999999999999989e-01 0.0000000000000000e+00  0.0000000000000000e+00 9.8437499999999989e-01 0.0000000000000000e+00  0.0000000000000000e+00 1.0000000000000000e+00 0.0000000000000000e+00  0.0000000000000000e+00 9.8437500000000000e-01 0.0000000000000000e+00  0.0000000000000000e+00 1.0000000000000000e+00 0.0000000000000000e+00  0.0000000000000000e+00 9.8437500000000000e-01 0.0000000000000000e+00  0.0000000000000000e+00 1.0000000000000000e+00 0.0000000000000000e+00  0.0000000000000000e+00 9.8437500000000000e-01 0.0000000000000000e+00  0.0000000000000000e+00 1.0000000000000000e+00 0.0000000000000000e+00  0.0000000000000000e+00 9.8437500000000000e-01 0.0000000000000000e+00  0.0000000000000000e+00 9.9999999999999989e-01 0.0000000000000000e+00  0.0000000000000000e+00 9.8437499999999989e-01 0.0000000000000000e+00  0.0000000000000000e+00 1.0000000000000000e+00 0.0000000000000000e+00  0.0000000000000000e+00 9.8437500000000000e-01 0.0000000000000000e+00  0.0000000000000000e+00 1.0000000000000000e+00 0.0000000000000000e+00  0.0000000000000000e+00 9.8437500000000000e-01 0.0000000000000000e+00  0.0000000000000000e+00 9.9999999999999989e-01 0.0000000000000000e+00  0.0000000000000000e+00 9.8437499999999989e-01 0.0000000000000000e+00  0.0000000000000000e+00 1.0000000000000000e+00 0.0000000000000000e+00  0.0000000000000000e+00 9.8437500000000000e-01 0.0000000000000000e+00  0.0000000000000000e+00 1.0000000000000000e+00 0.0000000000000000e+00  0.0000000000000000e+00 9.8437500000000000e-01 0.0000000000000000e+00  0.0000000000000000e+00 9.9999999999999989e-01 0.0000000000000000e+00  0.0000000000000000e+00 9.8437499999999989e-01 0.0000000000000000e+00  0.0000000000000000e+00 1.0000000000000000e+00 0.0000000000000000e+00  0.0000000000000000e+00 9.8437500000000000e-01 0.0000000000000000e+00  0.0000000000000000e+00 1.0000000000000000e+00 0.0000000000000000e+00  0.0000000000000000e+00 9.8437500000000000e-01 0.0000000000000000e+00  0.0000000000000000e+00 1.0000000000000000e+00 0.0000000000000000e+00  0.0000000000000000e+00 9.8437500000000000e-01 0.0000000000000000e+00  0.0000000000000000e+00 1.0000000000000000e+00 0.0000000000000000e+00  0.0000000000000000e+00 9.8437500000000000e-01 0.0000000000000000e+00  0.0000000000000000e+00 1.0000000000000000e+00 0.0000000000000000e+00  0.0000000000000000e+00 9.8437500000000000e-01 0.0000000000000000e+00  0.0000000000000000e+00 9.9999999999999989e-01 0.0000000000000000e+00  0.0000000000000000e+00 9.8437499999999989e-01 0.0000000000000000e+00  0.0000000000000000e+00 9.9999999999999989e-01 0.0000000000000000e+00  0.0000000000000000e+00 9.8437499999999989e-01 0.0000000000000000e+00  0.0000000000000000e+00 9.9999999999999989e-01 0.0000000000000000e+00  0.0000000000000000e+00 9.8437499999999989e-01 0.0000000000000000e+00  0.0000000000000000e+00 1.0000000000000000e+00 0.0000000000000000e+00  0.0000000000000000e+00 9.8437500000000000e-01 0.0000000000000000e+00  0.0000000000000000e+00 9.9999999999999989e-01 0.0000000000000000e+00  0.0000000000000000e+00 9.8437499999999989e-01 0.0000000000000000e+00  0.0000000000000000e+00 9.9999999999999989e-01 0.0000000000000000e+00  0.0000000000000000e+00 9.8437499999999989e-01 0.0000000000000000e+00  0.0000000000000000e+00 1.0000000000000000e+00 0.0000000000000000e+00  0.0000000000000000e+00 9.8437500000000000e-01 0.0000000000000000e+00  0.0000000000000000e+00 9.9999999999999989e-01 0.0000000000000000e+00  0.0000000000000000e+00 9.8437499999999989e-01 0.0000000000000000e+00  0.0000000000000000e+00 9.9999999999999989e-01 0.0000000000000000e+00  0.0000000000000000e+00 9.8437499999999989e-01 0.0000000000000000e+00  0.0000000000000000e+00 1.0000000000000000e+00 0.0000000000000000e+00  0.0000000000000000e+00 9.8437500000000000e-01 0.0000000000000000e+00  0.0000000000000000e+00 9.9999999999999989e-01 0.0000000000000000e+00  0.0000000000000000e+00 9.8437499999999989e-01 0.0000000000000000e+00  0.0000000000000000e+00 1.0000000000000000e+00 0.0000000000000000e+00  0.0000000000000000e+00 9.8437500000000000e-01 0.0000000000000000e+00  0.0000000000000000e+00 1.0000000000000000e+00 0.0000000000000000e+00  0.0000000000000000e+00 9.8437500000000000e-01 0.0000000000000000e+00  0.0000000000000000e+00 9.9999999999999989e-01 0.0000000000000000e+00  0.0000000000000000e+00 9.8437499999999989e-01 0.0000000000000000e+00  0.0000000000000000e+00 1.0000000000000002e+00 0.0000000000000000e+00  0.0000000000000000e+00 9.8437500000000022e-01 0.0000000000000000e+00  0.0000000000000000e+00 1.0000000000000000e+00 0.0000000000000000e+00  0.0000000000000000e+00 9.8437500000000000e-01 0.0000000000000000e+00  0.0000000000000000e+00 1.0000000000000000e+00 0.0000000000000000e+00  0.0000000000000000e+00 9.8437500000000000e-01 0.0000000000000000e+00  0.0000000000000000e+00 1.0000000000000002e+00 0.0000000000000000e+00  0.0000000000000000e+00 9.8437500000000022e-01 0.0000000000000000e+00  0.0000000000000000e+00 1.0000000000000000e+00 0.0000000000000000e+00  0.0000000000000000e+00 9.8437500000000000e-01 0.0000000000000000e+00  0.0000000000000000e+00 1.0000000000000000e+00 0.0000000000000000e+00  0.0000000000000000e+00 9.8437500000000000e-01 0.0000000000000000e+00  0.0000000000000000e+00 9.9999999999999989e-01 0.0000000000000000e+00  0.0000000000000000e+00 9.8437499999999989e-01 0.0000000000000000e+00  0.0000000000000000e+00 1.0000000000000000e+00 0.0000000000000000e+00  0.0000000000000000e+00 9.8437500000000000e-01 0.0000000000000000e+00  0.0000000000000000e+00 9.9999999999999989e-01 0.0000000000000000e+00  0.0000000000000000e+00 9.8437499999999989e-01 0.0000000000000000e+00  0.0000000000000000e+00 1.0000000000000000e+00 0.0000000000000000e+00  0.0000000000000000e+00 9.8437500000000000e-01 0.0000000000000000e+00  0.0000000000000000e+00 1.0000000000000000e+00 0.0000000000000000e+00  0.0000000000000000e+00 9.8437500000000000e-01 0.0000000000000000e+00  0.0000000000000000e+00 9.9999999999999989e-01 0.0000000000000000e+00  0.0000000000000000e+00 9.8437499999999989e-01 0.0000000000000000e+00  0.0000000000000000e+00 1.0000000000000000e+00 0.0000000000000000e+00  0.0000000000000000e+00 9.8437500000000000e-01 0.0000000000000000e+00  0.0000000000000000e+00 1.0000000000000000e+00 0.0000000000000000e+00  0.0000000000000000e+00 9.8437500000000000e-01 0.0000000000000000e+00  0.0000000000000000e+00 1.0000000000000000e+00 0.0000000000000000e+00  0.0000000000000000e+00 9.8437500000000000e-01 0.0000000000000000e+00  0.0000000000000000e+00 1.0000000000000000e+00 0.0000000000000000e+00  0.0000000000000000e+00 9.8437500000000000e-01 0.0000000000000000e+00  0.0000000000000000e+00 9.9999999999999989e-01 0.0000000000000000e+00  0.0000000000000000e+00 9.8437499999999989e-01 0.0000000000000000e+00  0.0000000000000000e+00 9.9999999999999989e-01 0.0000000000000000e+00  0.0000000000000000e+00 9.8437499999999989e-01 0.0000000000000000e+00  0.0000000000000000e+00 1.0000000000000000e+00 0.0000000000000000e+00  0.0000000000000000e+00 9.8437500000000000e-01 0.0000000000000000e+00  0.0000000000000000e+00 1.0000000000000002e+00 0.0000000000000000e+00  0.0000000000000000e+00 9.8437500000000022e-01 0.0000000000000000e+00  0.0000000000000000e+00 9.9999999999999989e-01 0.0000000000000000e+00  0.0000000000000000e+00 9.8437499999999989e-01 0.0000000000000000e+00  0.0000000000000000e+00 1.0000000000000000e+00 0.0000000000000000e+00  0.0000000000000000e+00 9.8437500000000000e-01 0.0000000000000000e+00  0.0000000000000000e+00 1.0000000000000000e+00 0.0000000000000000e+00  0.0000000000000000e+00 9.8437500000000000e-01 0.0000000000000000e+00  0.0000000000000000e+00 1.0000000000000000e+00 0.0000000000000000e+00  0.0000000000000000e+00 9.8437500000000000e-01 0.0000000000000000e+00  0.0000000000000000e+00 1.0000000000000000e+00 0.0000000000000000e+00  0.0000000000000000e+00 9.8437500000000000e-01 0.0000000000000000e+00  0.0000000000000000e+00 1.0000000000000000e+00 0.0000000000000000e+00  0.0000000000000000e+00 9.8437500000000000e-01 0.0000000000000000e+00  0.0000000000000000e+00 1.0000000000000000e+00 0.0000000000000000e+00  0.0000000000000000e+00 9.8437500000000000e-01 0.0000000000000000e+00  0.0000000000000000e+00 9.9999999999999989e-01 0.0000000000000000e+00  0.0000000000000000e+00 9.8437499999999989e-01 0.0000000000000000e+00  0.0000000000000000e+00 9.8437499999999989e-01 0.0000000000000000e+00  0.0000000000000000e+00 9.6874999999999989e-01 0.0000000000000000e+00  0.0000000000000000e+00 9.6874999999999978e-01 0.0000000000000000e+00  0.0000000000000000e+00 9.6874999999999989e-01 0.0000000000000000e+00  0.0000000000000000e+00 9.6875000000000000e-01 0.0000000000000000e+00  0.0000000000000000e+00 9.6874999999999989e-01 0.0000000000000000e+00  0.0000000000000000e+00 9.6874999999999989e-01 0.0000000000000000e+00  0.0000000000000000e+00 9.6875000000000000e-01 0.0000000000000000e+00  0.0000000000000000e+00 9.6874999999999989e-01 0.0000000000000000e+00  0.0000000000000000e+00 9.6874999999999989e-01 0.0000000000000000e+00  0.0000000000000000e+00 9.6875000000000000e-01 0.0000000000000000e+00  0.0000000000000000e+00 9.6875000000000000e-01 0.0000000000000000e+00  0.0000000000000000e+00 9.6874999999999989e-01 0.0000000000000000e+00  0.0000000000000000e+00 9.6875000000000000e-01 0.0000000000000000e+00  0.0000000000000000e+00 9.6875000000000000e-01 0.0000000000000000e+00  0.0000000000000000e+00 9.6875000000000000e-01 0.0000000000000000e+00  0.0000000000000000e+00 9.6875000000000022e-01 0.0000000000000000e+00  0.0000000000000000e+00 9.6875000000000000e-01 0.0000000000000000e+00  0.0000000000000000e+00 9.6875000000000000e-01 0.0000000000000000e+00  0.0000000000000000e+00 9.6875000000000022e-01 0.0000000000000000e+00  0.0000000000000000e+00 9.6875000000000000e-01 0.0000000000000000e+00  0.0000000000000000e+00 9.6875000000000022e-01 0.0000000000000000e+00  0.0000000000000000e+00 9.6875000000000022e-01 0.0000000000000000e+00  0.0000000000000000e+00 9.6875000000000000e-01 0.0000000000000000e+00  0.0000000000000000e+00 9.6875000000000022e-01 0.0000000000000000e+00  0.0000000000000000e+00 9.6875000000000000e-01 0.0000000000000000e+00  0.0000000000000000e+00 9.6875000000000000e-01 0.0000000000000000e+00  0.0000000000000000e+00 9.6874999999999989e-01 0.0000000000000000e+00  0.0000000000000000e+00 9.6874999999999989e-01 0.0000000000000000e+00  0.0000000000000000e+00 9.6874999999999978e-01 0.0000000000000000e+00  0.0000000000000000e+00 9.6874999999999989e-01 0.0000000000000000e+00  0.0000000000