<?xml version="1.0"?>
<VTKFile type="UnstructuredGrid"  version="0.1"  >
<UnstructuredGrid>
<Piece  NumberOfPoints="8544" NumberOfCells="16693">
<Points>
<DataArray  type="Float64"  NumberOfComponents="3"  format="ascii">0 1 0  0.001953125 1 0  0.001953125 0.986328125 0  0 0.986328125 0  0.00390625 1 0  0.00390625 0.986328125 0  0.005859375 1 0  0.005859375 0.986328125 0  0.0078125 1 0  0.0078125 0.986328125 0  0.009765625 1 0  0.009765625 0.986328125 0  0.01171875 1 0  0.01171875 0.986328125 0  0.013671875 1 0  0.013671875 0.986328125 0  0.015625 1 0  0.015625 0.986328125 0  0.017578125 1 0  0.017578125 0.986328125 0  0.01953125 1 0  0.01953125 0.986328125 0  0.021484375 1 0  0.021484375 0.986328125 0  0.0234375 1 0  0.0234375 0.986328125 0  0.025390625 1 0  0.025390625 0.986328125 0  0.02734375 1 0  0.02734375 0.986328125 0  0.029296875 1 0  0.029296875 0.986328125 0  0.03125 1 0  0.03125 0.986328125 0  0.033203125 1 0  0.033203125 0.986328125 0  0.03515625 1 0  0.03515625 0.986328125 0  0.037109375 1 0  0.037109375 0.986328125 0  0.0390625 1 0  0.0390625 0.986328125 0  0.041015625 1 0  0.041015625 0.986328125 0  0.04296875 1 0  0.04296875 0.986328125 0  0.044921875 1 0  0.044921875 0.986328125 0  0.046875 1 0  0.046875 0.986328125 0  0.048828125 1 0  0.048828125 0.986328125 0  0.05078125 0.9999999999999999 0  0.05078125 0.9863281249999999 0  0.052734375 1 0  0.052734375 0.986328125 0  0.0546875 1 0  0.0546875 0.986328125 0  0.056640625 0.9999999999999999 0  0.056640625 0.9863281249999999 0  0.05859375 1 0  0.05859375 0.986328125 0  0.060546875 1 0  0.060546875 0.986328125 0  0.0625 0.9999999999999999 0  0.0625 0.9863281249999999 0  0.064453125 1 0  0.064453125 0.986328125 0  0.06640625 1 0  0.06640625 0.986328125 0  0.068359375 0.9999999999999999 0  0.068359375 0.9863281249999999 0  0.0703125 1 0  0.0703125 0.986328125 0  0.072265625 1 0  0.072265625 0.986328125 0  0.07421875 0.9999999999999999 0  0.07421875 0.9863281249999999 0  0.076171875 1 0  0.076171875 0.986328125 0  0.078125 1 0  0.078125 0.986328125 0  0.080078125 0.9999999999999999 0  0.080078125 0.9863281249999999 0  0.08203125 1 0  0.08203125 0.986328125 0  0.083984375 1 0  0.083984375 0.986328125 0  0.0859375 0.9999999999999999 0  0.0859375 0.9863281249999999 0  0.087890625 1 0  0.087890625 0.986328125 0  0.08984375 1 0  0.08984375 0.986328125 0  0.091796875 0.9999999999999999 0  0.091796875 0.9863281249999999 0  0.09375 1 0  0.09375 0.986328125 0  0.095703125 1 0  0.095703125 0.986328125 0  0.09765625 0.9999999999999999 0  0.09765625 0.9863281249999999 0  0.099609375 1 0  0.099609375 0.986328125 0  0.1015625 1 0  0.1015625 0.986328125 0  0.103515625 0.9999999999999999 0  0.103515625 0.9863281249999999 0  0.10546875 1 0  0.10546875 0.986328125 0  0.107421875 1 0  0.107421875 0.986328125 0  0.109375 0.9999999999999999 0  0.109375 0.9863281249999999 0  0.111328125 1 0  0.111328125 0.986328125 0  0.11328125 1 0  0.11328125 0.986328125 0  0.115234375 1 0  0.115234375 0.986328125 0  0.1171875 1 0  0.1171875 0.986328125 0  0.119140625 1 0  0.119140625 0.986328125 0  0.12109375 1 0  0.12109375 0.986328125 0  0.123046875 1 0  0.123046875 0.986328125 0  0.125 1 0  0.125 0.986328125 0  0.126953125 1 0  0.126953125 0.986328125 0  0.12890625 1 0  0.12890625 0.986328125 0  0.130859375 1 0  0.130859375 0.986328125 0  0.1328125 1 0  0.1328125 0.986328125 0  0.134765625 1 0  0.134765625 0.986328125 0  0.13671875 1 0  0.13671875 0.986328125 0  0.138671875 1 0  0.138671875 0.986328125 0  0.140625 1 0  0.140625 0.986328125 0  0.142578125 1 0  0.142578125 0.986328125 0  0.14453125 0.9999999999999998 0  0.14453125 0.9863281249999998 0  0.146484375 0.9999999999999999 0  0.146484375 0.9863281249999999 0  0.1484375 0.9999999999999997 0  0.1484375 0.9863281249999997 0  0.150390625 0.9999999999999998 0  0.150390625 0.9863281249999998 0  0.15234375 0.9999999999999999 0  0.15234375 0.9863281249999999 0  0.154296875 0.9999999999999997 0  0.154296875 0.9863281249999997 0  0.15625 0.9999999999999998 0  0.15625 0.9863281249999998 0  0.158203125 0.9999999999999999 0  0.158203125 0.9863281249999999 0  0.16015625 0.9999999999999997 0  0.16015625 0.9863281249999997 0  0.162109375 1 0  0.162109375 0.986328125 0  0.1640625 1 0  0.1640625 0.986328125 0  0.166015625 0.9999999999999999 0  0.166015625 0.9863281249999999 0  0.16796875 1 0  0.16796875 0.986328125 0  0.169921875 1 0  0.169921875 0.986328125 0  0.171875 0.9999999999999999 0  0.171875 0.9863281249999999 0  0.173828125 1 0  0.173828125 0.986328125 0  0.17578125 1 0  0.17578125 0.986328125 0  0.177734375 0.9999999999999999 0  0.177734375 0.9863281249999999 0  0.1796875 1 0  0.1796875 0.986328125 0  0.181640625 1 0  0.181640625 0.986328125 0  0.18359375 1 0  0.18359375 0.986328125 0  0.185546875 1 0  0.185546875 0.986328125 0  0.1875 1 0  0.1875 0.986328125 0  0.189453125 0.9999999999999999 0  0.189453125 0.9863281249999999 0  0.19140625 1 0  0.19140625 0.986328125 0  0.193359375 1 0  0.193359375 0.986328125 0  0.1953125 0.9999999999999999 0  0.1953125 0.9863281249999999 0  0.197265625 1 0  0.197265625 0.986328125 0  0.19921875 1 0  0.19921875 0.986328125 0  0.201171875 1 0  0.201171875 0.986328125 0  0.203125 1 0  0.203125 0.986328125 0  0.205078125 1 0  0.205078125 0.986328125 0  0.20703125 0.9999999999999999 0  0.20703125 0.9863281249999999 0  0.208984375 1 0  0.208984375 0.986328125 0  0.2109375 0.9999999999999999 0  0.2109375 0.9863281249999999 0  0.212890625 0.9999999999999999 0  0.212890625 0.9863281249999999 0  0.21484375 1 0  0.21484375 0.986328125 0  0.216796875 0.9999999999999999 0  0.216796875 0.9863281249999999 0  0.21875 0.9999999999999999 0  0.21875 0.9863281249999999 0  0.220703125 1 0  0.220703125 0.986328125 0  0.22265625 0.986328125 0  0.001953125 0.97265625 0  0 0.97265625 0  0.00390625 0.97265625 0  0.005859375 0.97265625 0  0.0078125 0.97265625 0  0.009765625 0.97265625 0  0.01171875 0.97265625 0  0.013671875 0.97265625 0  0.015625 0.97265625 0  0.017578125 0.97265625 0  0.01953125 0.97265625 0  0.021484375 0.97265625 0  0.0234375 0.97265625 0  0.025390625 0.97265625 0  0.02734375 0.97265625 0  0.029296875 0.97265625 0  0.03125 0.97265625 0  0.033203125 0.97265625 0  0.03515625 0.97265625 0  0.037109375 0.97265625 0  0.0390625 0.97265625 0  0.041015625 0.97265625 0  0.04296875 0.97265625 0  0.044921875 0.97265625 0  0.046875 0.97265625 0  0.048828125 0.97265625 0  0.05078125 0.9726562499999999 0  0.052734375 0.97265625 0  0.0546875 0.97265625 0  0.056640625 0.9726562499999999 0  0.05859375 0.97265625 0  0.060546875 0.97265625 0  0.0625 0.9726562499999999 0  0.064453125 0.97265625 0  0.06640625 0.97265625 0  0.068359375 0.9726562499999999 0  0.0703125 0.97265625 0  0.072265625 0.97265625 0  0.07421875 0.9726562499999999 0  0.076171875 0.97265625 0  0.078125 0.97265625 0  0.080078125 0.9726562499999999 0  0.08203125 0.97265625 0  0.083984375 0.97265625 0  0.0859375 0.9726562499999999 0  0.087890625 0.97265625 0  0.08984375 0.97265625 0  0.091796875 0.9726562499999999 0  0.09375 0.97265625 0  0.095703125 0.97265625 0  0.09765625 0.9726562499999999 0  0.099609375 0.97265625 0  0.1015625 0.97265625 0  0.103515625 0.9726562499999999 0  0.10546875 0.97265625 0  0.107421875 0.97265625 0  0.109375 0.9726562499999999 0  0.111328125 0.97265625 0  0.11328125 0.97265625 0  0.115234375 0.97265625 0  0.1171875 0.97265625 0  0.119140625 0.97265625 0  0.12109375 0.97265625 0  0.123046875 0.97265625 0  0.125 0.97265625 0  0.126953125 0.97265625 0  0.12890625 0.97265625 0  0.130859375 0.97265625 0  0.1328125 0.97265625 0  0.134765625 0.97265625 0  0.13671875 0.97265625 0  0.138671875 0.97265625 0  0.140625 0.97265625 0  0.142578125 0.97265625 0  0.14453125 0.9726562499999998 0  0.146484375 0.9726562499999999 0  0.1484375 0.9726562499999997 0  0.150390625 0.9726562499999998 0  0.15234375 0.9726562499999999 0  0.154296875 0.9726562499999997 0  0.15625 0.9726562499999998 0  0.158203125 0.9726562499999999 0  0.16015625 0.9726562499999997 0  0.162109375 0.97265625 0  0.1640625 0.97265625 0  0.166015625 0.9726562499999999 0  0.16796875 0.97265625 0  0.169921875 0.97265625 0  0.171875 0.9726562499999999 0  0.173828125 0.97265625 0  0.17578125 0.97265625 0  0.177734375 0.9726562499999999 0  0.1796875 0.97265625 0  0.181640625 0.97265625 0  0.18359375 0.97265625 0  0.185546875 0.97265625 0  0.1875 0.97265625 0  0.189453125 0.9726562499999999 0  0.19140625 0.97265625 0  0.193359375 0.97265625 0  0.1953125 0.9726562499999999 0  0.197265625 0.97265625 0  0.19921875 0.97265625 0  0.201171875 0.97265625 0  0.203125 0.97265625 0  0.205078125 0.97265625 0  0.20703125 0.9726562499999999 0  0.208984375 0.97265625 0  0.2109375 0.9726562499999999 0  0.212890625 0.9726562499999999 0  0.21484375 0.97265625 0  0.216796875 0.9726562499999999 0  0.21875 0.9726562499999999 0  0.220703125 0.97265625 0  0.22265625 0.97265625 0  0.001953125 0.958984375 0  0 0.958984375 0  0.00390625 0.958984375 0  0.005859375 0.958984375 0  0.0078125 0.958984375 0  0.009765625 0.958984375 0  0.01171875 0.958984375 0  0.013671875 0.958984375 0  0.015625 0.958984375 0  0.017578125 0.958984375 0  0.01953125 0.958984375 0  0.021484375 0.958984375 0  0.0234375 0.958984375 0  0.025390625 0.958984375 0  0.02734375 0.958984375 0  0.029296875 0.958984375 0  0.03125 0.958984375 0  0.033203125 0.958984375 0  0.03515625 0.958984375 0  0.037109375 0.958984375 0  0.0390625 0.958984375 0  0.041015625 0.958984375 0  0.04296875 0.958984375 0  0.044921875 0.958984375 0  0.046875 0.958984375 0  0.048828125 0.958984375 0  0.05078125 0.9589843749999999 0  0.052734375 0.958984375 0  0.0546875 0.958984375 0  0.056640625 0.9589843749999999 0  0.05859375 0.958984375 0  0.060546875 0.958984375 0  0.0625 0.9589843749999999 0  0.064453125 0.958984375 0  0.06640625 0.958984375 0  0.068359375 0.9589843749999999 0  0.0703125 0.958984375 0  0.072265625 0.958984375 0  0.07421875 0.9589843749999999 0  0.076171875 0.958984375 0  0.078125 0.958984375 0  0.080078125 0.9589843749999999 0  0.08203125 0.9589
[...]
<PointData  Vectors="f_16"> 
<DataArray  type="Float64"  Name="f_16"  NumberOfComponents="3" format="ascii">0.0000000000000000e+00 1.0000000000000000e+00 0.0000000000000000e+00  0.0000000000000000e+00 1.0000000000000000e+00 0.0000000000000000e+00  0.0000000000000000e+00 9.8437500000000000e-01 0.0000000000000000e+00  0.0000000000000000e+00 9.8437500000000000e-01 0.0000000000000000e+00  0.0000000000000000e+00 1.0000000000000000e+00 0.0000000000000000e+00  0.0000000000000000e+00 9.8437500000000000e-01 0.0000000000000000e+00  0.0000000000000000e+00 1.0000000000000000e+00 0.0000000000000000e+00  0.0000000000000000e+00 9.8437500000000000e-01 0.0000000000000000e+00  0.0000000000000000e+00 1.0000000000000000e+00 0.0000000000000000e+00  0.0000000000000000e+00 9.8437500000000000e-01 0.0000000000000000e+00  0.0000000000000000e+00 1.0000000000000000e+00 0.0000000000000000e+00  0.0000000000000000e+00 9.8437500000000000e-01 0.0000000000000000e+00  0.0000000000000000e+00 1.0000000000000000e+00 0.0000000000000000e+00  0.0000000000000000e+00 9.8437500000000000e-01 0.0000000000000000e+00  0.0000000000000000e+00 1.0000000000000000e+00 0.0000000000000000e+00  0.0000000000000000e+00 9.8437500000000000e-01 0.0000000000000000e+00  0.0000000000000000e+00 1.0000000000000000e+00 0.0000000000000000e+00  0.0000000000000000e+00 9.8437500000000000e-01 0.0000000000000000e+00  0.0000000000000000e+00 1.0000000000000000e+00 0.0000000000000000e+00  0.0000000000000000e+00 9.8437500000000000e-01 0.0000000000000000e+00  0.0000000000000000e+00 1.0000000000000000e+00 0.0000000000000000e+00  0.0000000000000000e+00 9.8437500000000000e-01 0.0000000000000000e+00  0.0000000000000000e+00 1.0000000000000000e+00 0.0000000000000000e+00  0.0000000000000000e+00 9.8437500000000000e-01 0.0000000000000000e+00  0.0000000000000000e+00 1.0000000000000000e+00 0.0000000000000000e+00  0.0000000000000000e+00 9.8437500000000000e-01 0.0000000000000000e+00  0.0000000000000000e+00 1.0000000000000000e+00 0.0000000000000000e+00  0.0000000000000000e+00 9.8437500000000000e-01 0.0000000000000000e+00  0.0000000000000000e+00 1.0000000000000000e+00 0.0000000000000000e+00  0.0000000000000000e+00 9.8437500000000000e-01 0.0000000000000000e+00  0.0000000000000000e+00 1.0000000000000000e+00 0.0000000000000000e+00  0.0000000000000000e+00 9.8437500000000000e-01 0.0000000000000000e+00  0.0000000000000000e+00 1.0000000000000000e+00 0.0000000000000000e+00  0.0000000000000000e+00 9.8437500000000000e-01 0.0000000000000000e+00  0.0000000000000000e+00 1.0000000000000000e+00 0.0000000000000000e+00  0.0000000000000000e+00 9.8437500000000000e-01 0.0000000000000000e+00  0.0000000000000000e+00 1.0000000000000000e+00 0.0000000000000000e+00  0.0000000000000000e+00 9.8437500000000000e-01 0.0000000000000000e+00  0.0000000000000000e+00 1.0000000000000000e+00 0.0000000000000000e+00  0.0000000000000000e+00 9.8437500000000000e-01 0.0000000000000000e+00  0.0000000000000000e+00 1.0000000000000000e+00 0.0000000000000000e+00  0.0000000000000000e+00 9.8437500000000000e-01 0.0000000000000000e+00  0.0000000000000000e+00 1.0000000000000000e+00 0.0000000000000000e+00  0.0000000000000000e+00 9.8437500000000000e-01 0.0000000000000000e+00  0.0000000000000000e+00 1.0000000000000000e+00 0.0000000000000000e+00  0.0000000000000000e+00 9.8437500000000000e-01 0.0000000000000000e+00  0.0000000000000000e+00 1.0000000000000000e+00 0.0000000000000000e+00  0.0000000000000000e+00 9.8437500000000000e-01 0.0000000000000000e+00  0.0000000000000000e+00 1.0000000000000000e+00 0.0000000000000000e+00  0.0000000000000000e+00 9.8437500000000000e-01 0.0000000000000000e+00  0.0000000000000000e+00 1.0000000000000000e+00 0.0000000000000000e+00  0.0000000000000000e+00 9.8437500000000000e-01 0.0000000000000000e+00  0.0000000000000000e+00 9.9999999999999989e-01 0.0000000000000000e+00  0.0000000000000000e+00 9.8437499999999989e-01 0.0000000000000000e+00  0.0000000000000000e+00 1.0000000000000000e+00 0.0000000000000000e+00  0.0000000000000000e+00 9.8437500000000000e-01 0.0000000000000000e+00  0.0000000000000000e+00 1.0000000000000000e+00 0.0000000000000000e+00  0.0000000000000000e+00 9.8437500000000000e-01 0.0000000000000000e+00  0.0000000000000000e+00 9.9999999999999989e-01 0.0000000000000000e+00  0.0000000000000000e+00 9.8437499999999989e-01 0.0000000000000000e+00  0.0000000000000000e+00 1.0000000000000000e+00 0.0000000000000000e+00  0.0000000000000000e+00 9.8437500000000000e-01 0.0000000000000000e+00  0.0000000000000000e+00 1.0000000000000000e+00 0.0000000000000000e+00  0.0000000000000000e+00 9.8437500000000000e-01 0.0000000000000000e+00  0.0000000000000000e+00 9.9999999999999989e-01 0.0000000000000000e+00  0.0000000000000000e+00 9.8437499999999989e-01 0.0000000000000000e+00  0.0000000000000000e+00 1.0000000000000000e+00 0.0000000000000000e+00  0.0000000000000000e+00 9.8437500000000000e-01 0.0000000000000000e+00  0.0000000000000000e+00 1.0000000000000000e+00 0.0000000000000000e+00  0.0000000000000000e+00 9.8437500000000000e-01 0.0000000000000000e+00  0.0000000000000000e+00 9.9999999999999989e-01 0.0000000000000000e+00  0.0000000000000000e+00 9.8437499999999989e-01 0.0000000000000000e+00  0.0000000000000000e+00 1.0000000000000000e+00 0.0000000000000000e+00  0.0000000000000000e+00 9.8437500000000000e-01 0.0000000000000000e+00  0.0000000000000000e+00 1.0000000000000000e+00 0.0000000000000000e+00  0.0000000000000000e+00 9.8437500000000000e-01 0.0000000000000000e+00  0.0000000000000000e+00 9.9999999999999989e-01 0.0000000000000000e+00  0.0000000000000000e+00 9.8437499999999989e-01 0.0000000000000000e+00  0.0000000000000000e+00 1.0000000000000000e+00 0.0000000000000000e+00  0.0000000000000000e+00 9.8437500000000000e-01 0.0000000000000000e+00  0.0000000000000000e+00 1.0000000000000000e+00 0.0000000000000000e+00  0.0000000000000000e+00 9.8437500000000000e-01 0.0000000000000000e+00  0.0000000000000000e+00 9.9999999999999989e-01 0.0000000000000000e+00  0.0000000000000000e+00 9.8437499999999989e-01 0.0000000000000000e+00  0.0000000000000000e+00 1.0000000000000000e+00 0.0000000000000000e+00  0.0000000000000000e+00 9.8437500000000000e-01 0.0000000000000000e+00  0.0000000000000000e+00 1.0000000000000000e+00 0.0000000000000000e+00  0.0000000000000000e+00 9.8437500000000000e-01 0.0000000000000000e+00  0.0000000000000000e+00 9.9999999999999989e-01 0.0000000000000000e+00  0.0000000000000000e+00 9.8437499999999989e-01 0.0000000000000000e+00  0.0000000000000000e+00 1.0000000000000000e+00 0.0000000000000000e+00  0.0000000000000000e+00 9.8437500000000000e-01 0.0000000000000000e+00  0.0000000000000000e+00 1.0000000000000000e+00 0.0000000000000000e+00  0.0000000000000000e+00 9.8437500000000000e-01 0.0000000000000000e+00  0.0000000000000000e+00 9.9999999999999989e-01 0.0000000000000000e+00  0.0000000000000000e+00 9.8437499999999989e-01 0.0000000000000000e+00  0.0000000000000000e+00 1.0000000000000000e+00 0.0000000000000000e+00  0.0000000000000000e+00 9.8437500000000000e-01 0.0000000000000000e+00  0.0000000000000000e+00 1.0000000000000000e+00 0.0000000000000000e+00  0.0000000000000000e+00 9.8437500000000000e-01 0.0000000000000000e+00  0.0000000000000000e+00 9.9999999999999989e-01 0.0000000000000000e+00  0.0000000000000000e+00 9.8437499999999989e-01 0.0000000000000000e+00  0.0000000000000000e+00 1.0000000000000000e+00 0.0000000000000000e+00  0.0000000000000000e+00 9.8437500000000000e-01 0.0000000000000000e+00  0.0000000000000000e+00 1.0000000000000000e+00 0.0000000000000000e+00  0.0000000000000000e+00 9.8437500000000000e-01 0.0000000000000000e+00  0.0000000000000000e+00 9.9999999999999989e-01 0.0000000000000000e+00  0.0000000000000000e+00 9.8437499999999989e-01 0.0000000000000000e+00  0.0000000000000000e+00 1.0000000000000000e+00 0.0000000000000000e+00  0.0000000000000000e+00 9.8437500000000000e-01 0.0000000000000000e+00  0.0000000000000000e+00 1.0000000000000000e+00 0.0000000000000000e+00  0.0000000000000000e+00 9.8437500000000000e-01 0.0000000000000000e+00  0.0000000000000000e+00 9.9999999999999989e-01 0.0000000000000000e+00  0.0000000000000000e+00 9.8437499999999989e-01 0.0000000000000000e+00  0.0000000000000000e+00 1.0000000000000000e+00 0.0000000000000000e+00  0.0000000000000000e+00 9.8437500000000000e-01 0.0000000000000000e+00  0.0000000000000000e+00 1.0000000000000000e+00 0.0000000000000000e+00  0.0000000000000000e+00 9.8437500000000000e-01 0.0000000000000000e+00  0.0000000000000000e+00 1.0000000000000000e+00 0.0000000000000000e+00  0.0000000000000000e+00 9.8437500000000000e-01 0.0000000000000000e+00  0.0000000000000000e+00 1.0000000000000000e+00 0.0000000000000000e+00  0.0000000000000000e+00 9.8437500000000000e-01 0.0000000000000000e+00  0.0000000000000000e+00 1.0000000000000000e+00 0.0000000000000000e+00  0.0000000000000000e+00 9.8437500000000000e-01 0.0000000000000000e+00  0.0000000000000000e+00 1.0000000000000000e+00 0.0000000000000000e+00  0.0000000000000000e+00 9.8437500000000000e-01 0.0000000000000000e+00  0.0000000000000000e+00 1.0000000000000000e+00 0.0000000000000000e+00  0.0000000000000000e+00 9.8437500000000000e-01 0.0000000000000000e+00  0.0000000000000000e+00 1.0000000000000000e+00 0.0000000000000000e+00  0.0000000000000000e+00 9.8437500000000000e-01 0.0000000000000000e+00  0.0000000000000000e+00 1.0000000000000000e+00 0.0000000000000000e+00  0.0000000000000000e+00 9.8437500000000000e-01 0.0000000000000000e+00  0.0000000000000000e+00 1.0000000000000000e+00 0.0000000000000000e+00  0.0000000000000000e+00 9.8437500000000000e-01 0.0000000000000000e+00  0.0000000000000000e+00 1.0000000000000000e+00 0.0000000000000000e+00  0.0000000000000000e+00 9.8437500000000000e-01 0.0000000000000000e+00  0.0000000000000000e+00 1.0000000000000000e+00 0.0000000000000000e+00  0.0000000000000000e+00 9.8437500000000000e-01 0.0000000000000000e+00  0.0000000000000000e+00 1.0000000000000000e+00 0.0000000000000000e+00  0.0000000000000000e+00 9.8437500000000000e-01 0.0000000000000000e+00  0.0000000000000000e+00 1.0000000000000000e+00 0.0000000000000000e+00  0.0000000000000000e+00 9.8437500000000000e-01 0.0000000000000000e+00  0.0000000000000000e+00 1.0000000000000000e+00 0.0000000000000000e+00  0.0000000000000000e+00 9.8437500000000000e-01 0.0000000000000000e+00  0.0000000000000000e+00 1.0000000000000000e+00 0.0000000000000000e+00  0.0000000000000000e+00 9.8437500000000000e-01 0.0000000000000000e+00  0.0000000000000000e+00 1.0000000000000000e+00 0.0000000000000000e+00  0.0000000000000000e+00 9.8437500000000000e-01 0.0000000000000000e+00  0.0000000000000000e+00 9.9999999999999978e-01 0.0000000000000000e+00  0.0000000000000000e+00 9.8437499999999978e-01 0.0000000000000000e+00  0.0000000000000000e+00 9.9999999999999989e-01 0.0000000000000000e+00  0.0000000000000000e+00 9.8437499999999989e-01 0.0000000000000000e+00  0.0000000000000000e+00 9.9999999999999967e-01 0.0000000000000000e+00  0.0000000000000000e+00 9.8437499999999967e-01 0.0000000000000000e+00  0.0000000000000000e+00 9.9999999999999978e-01 0.0000000000000000e+00  0.0000000000000000e+00 9.8437499999999978e-01 0.0000000000000000e+00  0.0000000000000000e+00 9.9999999999999989e-01 0.0000000000000000e+00  0.0000000000000000e+00 9.8437499999999989e-01 0.0000000000000000e+00  0.0000000000000000e+00 9.9999999999999967e-01 0.0000000000000000e+00  0.0000000000000000e+00 9.8437499999999967e-01 0.0000000000000000e+00  0.0000000000000000e+00 9.9999999999999978e-01 0.0000000000000000e+00  0.0000000000000000e+00 9.8437499999999978e-01 0.0000000000000000e+00  0.0000000000000000e+00 9.9999999999999989e-01 0.0000000000000000e+00  0.0000000000000000e+00 9.8437499999999989e-01 0.0000000000000000e+00  0.0000000000000000e+00 9.9999999999999967e-01 0.0000000000000000e+00  0.0000000000000000e+00 9.8437499999999967e-01 0.0000000000000000e+00  0.0000000000000000e+00 1.0000000000000000e+00 0.0000000000000000e+00  0.0000000000000000e+00 9.8437500000000000e-01 0.0000000000000000e+00  0.0000000000000000e+00 1.0000000000000000e+00 0.0000000000000000e+00  0.0000000000000000e+00 9.8437500000000000e-01 0.0000000000000000e+00  0.0000000000000000e+00 9.9999999999999989e-01 0.0000000000000000e+00  0.0000000000000000e+00 9.8437499999999989e-01 0.0000000000000000e+00  0.0000000000000000e+00 1.0000000000000000e+00 0.0000000000000000e+00  0.0000000000000000e+00 9.8437500000000000e-01 0.0000000000000000e+00  0.0000000000000000e+00 1.0000000000000000e+00 0.0000000000000000e+00  0.0000000000000000e+00 9.8437500000000000e-01 0.0000000000000000e+00  0.0000000000000000e+00 9.9999999999999989e-01 0.0000000000000000e+00  0.0000000000000000e+00 9.8437499999999989e-01 0.0000000000000000e+00  0.0000000000000000e+00 1.0000000000000000e+00 0.0000000000000000e+00  0.0000000000000000e+00 9.8437500000000000e-01 0.0000000000000000e+00  0.0000000000000000e+00 1.0000000000000000e+00 0.0000000000000000e+00  0.0000000000000000e+00 9.8437500000000000e-01 0.0000000000000000e+00  0.0000000000000000e+00 9.9999999999999989e-01 0.0000000000000000e+00  0.0000000000000000e+00 9.8437499999999989e-01 0.0000000000000000e+00  0.0000000000000000e+00 1.0000000000000000e+00 0.0000000000000000e+00  0.0000000000000000e+00 9.8437500000000000e-01 0.0000000000000000e+00  0.0000000000000000e+00 1.0000000000000000e+00 0.0000000000000000e+00  0.0000000000000000e+00 9.8437500000000000e-01 0.0000000000000000e+00  0.0000000000000000e+00 1.0000000000000000e+00 0.0000000000000000e+00  0.0000000000000000e+00 9.8437500000000000e-01 0.0000000000000000e+00  0.0000000000000000e+00 1.0000000000000000e+00 0.0000000000000000e+00  0.0000000000000000e+00 9.8437500000000000e-01 0.0000000000000000e+00  0.0000000000000000e+00 1.0000000000000000e+00 0.0000000000000000e+00  0.0000000000000000e+00 9.8437500000000000e-01 0.0000000000000000e+00  0.0000000000000000e+00 9.9999999999999989e-01 0.0000000000000000e+00  0.0000000000000000e+00 9.8437499999999989e-01 0.0000000000000000e+00  0.0000000000000000e+00 1.0000000000000000e+00 0.0000000000000000e+00  0.0000000000000000e+00 9.8437500000000000e-01 0.0000000000000000e+00  0.0000000000000000e+00 1.0000000000000000e+00 0.0000000000000000e+00  0.0000000000000000e+00 9.8437500000000000e-01 0.0000000000000000e+00  0.0000000000000000e+00 9.9999999999999989e-01 0.0000000000000000e+00  0.0000000000000000e+00 9.8437499999999989e-01 0.0000000000000000e+00  0.0000000000000000e+00 1.0000000000000000e+00 0.0000000000000000e+00  0.0000000000000000e+00 9.8437500000000000e-01 0.0000000000000000e+00  0.0000000000000000e+00 1.0000000000000000e+00 0.0000000000000000e+00  0.0000000000000000e+00 9.8437500000000000e-01 0.0000000000000000e+00  0.0000000000000000e+00 1.0000000000000000e+00 0.0000000000000000e+00  0.0000000000000000e+00 9.8437500000000000e-01 0.0000000000000000e+00  0.0000000000000000e+00 1.0000000000000000e+00 0.0000000000000000e+00  0.0000000000000000e+00 9.8437500000000000e-01 0.0000000000000000e+00  0.0000000000000000e+00 1.0000000000000000e+00 0.0000000000000000e+00  0.0000000000000000e+00 9.8437500000000000e-01 0.0000000000000000e+00  0.0000000000000000e+00 9.9999999999999989e-01 0.0000000000000000e+00  0.0000000000000000e+00 9.8437499999999989e-01 0.0000000000000000e+00  0.0000000000000000e+00 1.0000000000000000e+00 0.0000000000000000e+00  0.0000000000000000e+00 9.8437500000000000e-01 0.0000000000000000e+00  0.0000000000000000e+00 9.9999999999999989e-01 0.0000000000000000e+00  0.0000000000000000e+00 9.8437499999999989e-01 0.0000000000000000e+00  0.0000000000000000e+00 9.9999999999999989e-01 0.0000000000000000e+00  0.0000000000000000e+00 9.8437499999999989e-01 0.0000000000000000e+00  0.0000000000000000e+00 1.0000000000000000e+00 0.0000000000000000e+00  0.0000000000000000e+00 9.8437500000000000e-01 0.0000000000000000e+00  0.0000000000000000e+00 9.9999999999999989e-01 0.0000000000000000e+00  0.0000000000000000e+00 9.8437499999999989e-01 0.0000000000000000e+00  0.0000000000000000e+00 9.9999999999999989e-01 0.0000000000000000e+00  0.0000000000000000e+00 9.8437499999999989e-01 0.0000000000000000e+00  0.0000000000000000e+00 1.0000000000000000e+00 0.0000000000000000e+00  0.0000000000000000e+00 9.8437500000000000e-01 0.0000000000000000e+00  0.0000000000000000e+00 9.8437500000000000e-01 0.0000000000000000e+00  0.0000000000000000e+00 9.6875000000000000e-01 0.0000000000000000e+00  0.0000000000000000e+00 9.6875000000000000e-01 0.0000000000000000e+00  0.0000000000000000e+00 9.6875000000000000e-01 0.0000000000000000e+00  0.0000000000000000e+00 9.6875000000000000e-01 0.0000000000000000e+00  0.0000000000000000e+00 9.6875000000000000e-01 0.0000000000000000e+00  0.0000000000000000e+00 9.6875000000000000e-01 0.0000000000000000e+00  0.0000000000000000e+00 9.6875000000000000e-01 0.0000000000000000e+00  0.0000000000000000e+00 9.6875000000000000e-01 0.0000000000000000e+00  0.0000000000000000e+00 9.6875000000000000e-01 0.0000000000000000e+00  0.0000000000000000e+00 9.6875000000000000e-01 0.0000000000000000e+00  0.0000000000000000e+00 9.6875000000000000e-01 0.0000000000000000e+00  0.0000000000000000e+00 9.6875000000000000e-01 0.0000000000000000e+00  0.0000000000000000e+00 9.6875000000000000e-01 0.0000000000000000e+00  0.0000000000000000e+00 9.6875000000000000e-01 0.0000000000000000e+00  0.0000000000000000e+00 9.6875000000000000e-01 0.0000000000000000e+00  0.0000000000000000e+00 9.6875000000000000e-01 0.0000000000000000e+00  0.0000000000000000e+00 9.6875000000000000e-01 0.0000000000000000e+00  0.0000000000000000e+00 9.6875000000000000e-01 0.0000000000000000e+00  0.0000000000000000e+00 9.6875000000000000e-01 0.0000000000000000e+00  0.0000000000000000e+00 9.6875000000000000e-01 0.0000000000000000e+00  0.0000000000000000e+00 9.6875000000000000e-01 0.0000000000000000e+00  0.0000000000000000e+00 9.6875000000000000e-01 0.0000000000000000e+00  0.0000000000000000e+00 9.6875000000000000e-01 0.0000000000000000e+00  0.0000000000000000e+00 9.6875000000000000e-01 0.0000000000000000e+00  0.0000000000000000e+00 9.6875000000000000e-01 0.0000000000000000e+00  0.0000000000000000e+00 9.6875000000000000e-01 0.0000000000000000e+00  0.0000000000000000e+00 9.6874999999999989e-01 0.0000000000000000e+00  0.0000000000000000e+00 9.6875000000000000e-01 0.0000000000000000e+00  0.0000000000000000e+00 9.6875000000000000e-01 0.0000000000000000e+00  0.0000000000000000e+00 9.6874999999999989e-01 0.0000000000000000e+00  0.0000000000000000e+00 9.6875000000000000e-01 0.0000000000000000e+00  0.0000000000000000e+00 9.6875000000000000e-01 0.0000000000000000e+00  0.0000000000000000e+00 9.6874999999999989e-01 0.0000000000000000e+00  0.0000000000000000e+00 9.6875000000000000e-01 0.0000000000000000e+00  0.0000000000000000e+00 9.6875000000000000e-01 0.0000000000000000e+00  0.0000000000000000e+00 9.6874999999999989e-01 0.0000000000000000e+00  0.0000000000000000e+00 9.6875000000000000e-01 0.0000000000000000e+00  0.0000000000000000e+00 9.6875000000000000e-01 0.0000000000000000e+00  0.0000000000000000e+00 9.6874999999999989e-01 0.0000000000000000e+00  0.0000000000000000e+00 9.6875000000000000e-01 0.0000000000000000e+00  0.0000000000000000e+00 9.6875000000000000e-01 0.0000000000000000e+00  0.0000000000000000e+00 9.6874999999999989e-01 0.0000000000000000e+00  0.0000000000000000e+00 9.6875000000000000e-01 0.0000000000000000e+00  0.0000000000000000e+00 9.6875000000000000e-01 0.0000000000000000e+00  0.0000000000000000e+00 9.6874999999999989e-01 0.0000000000000000e+00  0.0000000000000000e+00 9.6875000000000000e-01 0.0000000000000000e+00  0.0000000000000000e+00 9.6875000000000000e-01 0.0000000000000000e+00  0.0000000000000000e+00 9.6874999999999989e-01 0.0000000000000000e+00  0.0000000000000000e+00 9.6875000000000000e-01 0.0000000000000000e+00  0.0000000000000000e+00 9.6875000000000000e-01 0.0000000000000000e+00  0.0000000000000000e+00 9.6874999999999989e-01 0.0000000000000000e+00  0.0000000000000000e+00 9.6875000000000000e-01 0.0000000000000000e+00  0.0000000000000000e+00 9.6875000000000000e-01 0.0000000000000000e+00  0.0000000000000000e+00 9.6874999999999989e-01 0.0000000000000000e+00  0.0000000000000000e+00 9.6875000000000000e-01 0.0000000000000000e+00  0.0000000000