<?xml version="1.0"?>
<VTKFile type="UnstructuredGrid"  version="0.1"  >
<UnstructuredGrid>
<Piece  NumberOfPoints="8229" NumberOfCells="16075">
<Points>
<DataArray  type="Float64"  NumberOfComponents="3"  format="ascii">0.220703125 1 0  0.22265625 1 0  0.22265625 0.986328125 0  0.224609375 1 0  0.224609375 0.986328125 0  0.2265625 1 0  0.2265625 0.986328125 0  0.228515625 1 0  0.228515625 0.986328125 0  0.23046875 1 0  0.23046875 0.986328125 0  0.232421875 1 0  0.232421875 0.986328125 0  0.234375 1 0  0.234375 0.986328125 0  0.236328125 1 0  0.236328125 0.986328125 0  0.23828125 1 0  0.23828125 0.986328125 0  0.240234375 1 0  0.240234375 0.986328125 0  0.2421875 1 0  0.2421875 0.986328125 0  0.244140625 1 0  0.244140625 0.986328125 0  0.24609375 1 0  0.24609375 0.986328125 0  0.248046875 1 0  0.248046875 0.986328125 0  0.25 1 0  0.25 0.986328125 0  0.251953125 1 0  0.251953125 0.986328125 0  0.25390625 1 0  0.25390625 0.986328125 0  0.255859375 1 0  0.255859375 0.986328125 0  0.2578125 1 0  0.2578125 0.986328125 0  0.259765625 1 0  0.259765625 0.986328125 0  0.26171875 1 0  0.26171875 0.986328125 0  0.263671875 1 0  0.263671875 0.986328125 0  0.265625 1 0  0.265625 0.986328125 0  0.267578125 1 0  0.267578125 0.986328125 0  0.26953125 1 0  0.26953125 0.986328125 0  0.271484375 1 0  0.271484375 0.986328125 0  0.2734375 1 0  0.2734375 0.986328125 0  0.275390625 1 0  0.275390625 0.986328125 0  0.27734375 1 0  0.27734375 0.986328125 0  0.279296875 1 0  0.279296875 0.986328125 0  0.28125 1 0  0.28125 0.986328125 0  0.283203125 1 0  0.283203125 0.986328125 0  0.28515625 1 0  0.28515625 0.986328125 0  0.287109375 0.9999999999999999 0  0.287109375 0.9863281249999999 0  0.2890625 1 0  0.2890625 0.9863281250000002 0  0.291015625 1 0  0.291015625 0.986328125 0  0.29296875 0.9999999999999999 0  0.29296875 0.9863281249999999 0  0.294921875 1 0  0.294921875 0.9863281250000002 0  0.296875 1 0  0.296875 0.986328125 0  0.298828125 0.9999999999999999 0  0.298828125 0.9863281249999999 0  0.30078125 1 0  0.30078125 0.986328125 0  0.302734375 1 0  0.302734375 0.986328125 0  0.3046875 0.9999999999999999 0  0.3046875 0.9863281249999999 0  0.306640625 1 0  0.306640625 0.986328125 0  0.30859375 1 0  0.30859375 0.986328125 0  0.310546875 0.9999999999999999 0  0.310546875 0.9863281249999999 0  0.3125 1 0  0.3125 0.986328125 0  0.314453125 1 0  0.314453125 0.986328125 0  0.31640625 1 0  0.31640625 0.986328125 0  0.318359375 1 0  0.318359375 0.986328125 0  0.3203125 1 0  0.3203125 0.986328125 0  0.322265625 0.9999999999999999 0  0.322265625 0.9863281249999999 0  0.32421875 1 0  0.32421875 0.986328125 0  0.326171875 1 0  0.326171875 0.986328125 0  0.328125 0.9999999999999999 0  0.328125 0.9863281249999999 0  0.330078125 1 0  0.330078125 0.986328125 0  0.33203125 1 0  0.33203125 0.986328125 0  0.333984375 0.9999999999999999 0  0.333984375 0.9863281249999999 0  0.3359375 1 0  0.3359375 0.986328125 0  0.337890625 1 0  0.337890625 0.986328125 0  0.33984375 0.9999999999999999 0  0.33984375 0.9863281249999999 0  0.341796875 1 0  0.341796875 0.986328125 0  0.34375 1 0  0.34375 0.986328125 0  0.345703125 0.9999999999999999 0  0.345703125 0.9863281249999999 0  0.34765625 1 0  0.34765625 0.986328125 0  0.349609375 1 0  0.349609375 0.986328125 0  0.3515625 1 0  0.3515625 0.986328125 0  0.353515625 1 0  0.353515625 0.986328125 0  0.35546875 1 0  0.35546875 0.986328125 0  0.357421875 1 0  0.357421875 0.986328125 0  0.359375 1 0  0.359375 0.986328125 0  0.361328125 0.9999999999999999 0  0.361328125 0.9863281249999999 0  0.36328125 1 0  0.36328125 0.986328125 0  0.365234375 1 0  0.365234375 0.986328125 0  0.3671875 1 0  0.3671875 0.986328125 0  0.369140625 1 0  0.369140625 0.986328125 0  0.37109375 0.9999999999999998 0  0.37109375 0.9863281249999998 0  0.373046875 0.9999999999999999 0  0.373046875 0.9863281249999999 0  0.375 1 0  0.375 0.986328125 0  0.376953125 0.9999999999999999 0  0.376953125 0.9863281249999999 0  0.37890625 0.9999999999999999 0  0.37890625 0.9863281249999999 0  0.380859375 1 0  0.380859375 0.986328125 0  0.3828125 0.9999999999999998 0  0.3828125 0.9863281249999998 0  0.384765625 0.9999999999999999 0  0.384765625 0.9863281249999999 0  0.38671875 1 0  0.38671875 0.986328125 0  0.388671875 0.9999999999999999 0  0.388671875 0.9863281249999999 0  0.390625 0.9999999999999999 0  0.390625 0.9863281249999999 0  0.392578125 1 0  0.392578125 0.986328125 0  0.39453125 1 0  0.39453125 0.986328125 0  0.396484375 0.9999999999999999 0  0.396484375 0.9863281249999999 0  0.3984375 1 0  0.3984375 0.986328125 0  0.400390625 1 0  0.400390625 0.986328125 0  0.40234375 0.9999999999999999 0  0.40234375 0.9863281249999999 0  0.404296875 1 0  0.404296875 0.986328125 0  0.40625 0.9999999999999999 0  0.40625 0.9863281249999999 0  0.408203125 0.9999999999999999 0  0.408203125 0.9863281249999999 0  0.41015625 0.9999999999999999 0  0.41015625 0.9863281249999999 0  0.412109375 0.9999999999999999 0  0.412109375 0.9863281249999999 0  0.4140625 0.9999999999999998 0  0.4140625 0.9863281249999998 0  0.416015625 0.9999999999999999 0  0.416015625 0.9863281249999999 0  0.41796875 0.9999999999999999 0  0.41796875 0.9863281249999999 0  0.419921875 0.9999999999999998 0  0.419921875 0.9863281249999998 0  0.421875 0.9999999999999998 0  0.421875 0.9863281249999998 0  0.423828125 0.9999999999999999 0  0.423828125 0.9863281249999999 0  0.42578125 0.9999999999999998 0  0.42578125 0.9863281249999998 0  0.427734375 0.9999999999999998 0  0.427734375 0.9863281249999998 0  0.4296875 0.9999999999999999 0  0.4296875 0.9863281249999999 0  0.431640625 0.9999999999999998 0  0.431640625 0.9863281249999998 0  0.43359375 0.9999999999999998 0  0.43359375 0.9863281249999998 0  0.435546875 0.9999999999999999 0  0.435546875 0.9863281249999999 0  0.4375 0.9999999999999999 0  0.4375 0.9863281249999999 0  0.439453125 0.9999999999999998 0  0.439453125 0.9863281249999998 0  0.44140625 0.9999999999999999 0  0.44140625 0.9863281249999999 0  0.443359375 0.9999999999999999 0  0.443359375 0.9863281249999999 0  0.4453125 0.9999999999999998 0  0.4453125 0.9863281249999998 0  0.447265625 0.9999999999999999 0  0.447265625 0.9863281249999999 0  0.44921875 1 0  0.44921875 0.986328125 0  0.451171875 1 0  0.451171875 0.986328125 0  0.453125 0.9999999999999999 0  0.453125 0.9863281249999999 0  0.455078125 1 0  0.455078125 0.986328125 0  0.45703125 1 0  0.45703125 0.986328125 0  0.458984375 0.9999999999999999 0  0.458984375 0.9863281249999999 0  0.4609375 0.9999999999999999 0  0.4609375 0.9863281249999999 0  0.462890625 1 0  0.462890625 0.986328125 0  0.46484375 0.9999999999999999 0  0.46484375 0.9863281249999999 0  0.466796875 0.9999999999999999 0  0.466796875 0.9863281249999999 0  0.46875 0.9999999999999998 0  0.46875 0.9863281249999998 0  0.470703125 0.9863281249999999 0  0.224609375 0.97265625 0  0.22265625 0.97265625 0  0.2265625 0.97265625 0  0.228515625 0.97265625 0  0.23046875 0.97265625 0  0.232421875 0.97265625 0  0.234375 0.97265625 0  0.236328125 0.97265625 0  0.23828125 0.97265625 0  0.240234375 0.97265625 0  0.2421875 0.97265625 0  0.244140625 0.97265625 0  0.24609375 0.97265625 0  0.248046875 0.97265625 0  0.25 0.97265625 0  0.251953125 0.97265625 0  0.25390625 0.97265625 0  0.255859375 0.97265625 0  0.2578125 0.97265625 0  0.259765625 0.97265625 0  0.26171875 0.97265625 0  0.263671875 0.97265625 0  0.265625 0.97265625 0  0.267578125 0.97265625 0  0.26953125 0.97265625 0  0.271484375 0.97265625 0  0.2734375 0.97265625 0  0.275390625 0.97265625 0  0.27734375 0.97265625 0  0.279296875 0.97265625 0  0.28125 0.97265625 0  0.283203125 0.97265625 0  0.28515625 0.97265625 0  0.287109375 0.9726562499999999 0  0.2890625 0.9726562500000002 0  0.291015625 0.97265625 0  0.29296875 0.9726562499999999 0  0.294921875 0.9726562500000002 0  0.296875 0.97265625 0  0.298828125 0.9726562499999999 0  0.30078125 0.97265625 0  0.302734375 0.97265625 0  0.3046875 0.9726562499999999 0  0.306640625 0.97265625 0  0.30859375 0.97265625 0  0.310546875 0.9726562499999999 0  0.3125 0.97265625 0  0.314453125 0.97265625 0  0.31640625 0.97265625 0  0.318359375 0.97265625 0  0.3203125 0.97265625 0  0.322265625 0.9726562499999999 0  0.32421875 0.97265625 0  0.326171875 0.97265625 0  0.328125 0.9726562499999999 0  0.330078125 0.97265625 0  0.33203125 0.97265625 0  0.333984375 0.9726562499999999 0  0.3359375 0.97265625 0  0.337890625 0.97265625 0  0.33984375 0.9726562499999999 0  0.341796875 0.97265625 0  0.34375 0.97265625 0  0.345703125 0.9726562499999999 0  0.34765625 0.97265625 0  0.349609375 0.97265625 0  0.3515625 0.97265625 0  0.353515625 0.97265625 0  0.35546875 0.97265625 0  0.357421875 0.97265625 0  0.359375 0.97265625 0  0.361328125 0.9726562499999999 0  0.36328125 0.97265625 0  0.365234375 0.97265625 0  0.3671875 0.97265625 0  0.369140625 0.97265625 0  0.37109375 0.9726562499999998 0  0.373046875 0.9726562499999999 0  0.375 0.97265625 0  0.376953125 0.9726562499999999 0  0.37890625 0.9726562499999999 0  0.380859375 0.97265625 0  0.3828125 0.9726562499999998 0  0.384765625 0.9726562499999999 0  0.38671875 0.97265625 0  0.388671875 0.9726562499999999 0  0.390625 0.9726562499999999 0  0.392578125 0.97265625 0  0.39453125 0.97265625 0  0.396484375 0.9726562499999999 0  0.3984375 0.97265625 0  0.400390625 0.97265625 0  0.40234375 0.9726562499999999 0  0.404296875 0.97265625 0  0.40625 0.9726562499999999 0  0.408203125 0.9726562499999999 0  0.41015625 0.9726562499999999 0  0.412109375 0.9726562499999999 0  0.4140625 0.9726562499999998 0  0.416015625 0.9726562499999999 0  0.41796875 0.9726562499999999 0  0.419921875 0.9726562499999998 0  0.421875 0.9726562499999998 0  0.423828125 0.9726562499999999 0  0.42578125 0.9726562499999998 0  0.427734375 0.9726562499999998 0  0.4296875 0.9726562499999999 0  0.431640625 0.9726562499999998 0  0.43359375 0.9726562499999998 0  0.435546875 0.9726562499999999 0  0.4375 0.9726562499999999 0  0.439453125 0.9726562499999998 0  0.44140625 0.9726562499999999 0  0.443359375 0.9726562499999999 0  0.4453125
[...]
<PointData  Vectors="f_16"> 
<DataArray  type="Float64"  Name="f_16"  NumberOfComponents="3" format="ascii">0.0000000000000000e+00 1.0000000000000000e+00 0.0000000000000000e+00  0.0000000000000000e+00 1.0000000000000000e+00 0.0000000000000000e+00  0.0000000000000000e+00 9.8437500000000000e-01 0.0000000000000000e+00  0.0000000000000000e+00 1.0000000000000000e+00 0.0000000000000000e+00  0.0000000000000000e+00 9.8437500000000000e-01 0.0000000000000000e+00  0.0000000000000000e+00 1.0000000000000000e+00 0.0000000000000000e+00  0.0000000000000000e+00 9.8437500000000000e-01 0.0000000000000000e+00  0.0000000000000000e+00 1.0000000000000000e+00 0.0000000000000000e+00  0.0000000000000000e+00 9.8437500000000000e-01 0.0000000000000000e+00  0.0000000000000000e+00 1.0000000000000000e+00 0.0000000000000000e+00  0.0000000000000000e+00 9.8437500000000000e-01 0.0000000000000000e+00  0.0000000000000000e+00 1.0000000000000000e+00 0.0000000000000000e+00  0.0000000000000000e+00 9.8437500000000000e-01 0.0000000000000000e+00  0.0000000000000000e+00 1.0000000000000000e+00 0.0000000000000000e+00  0.0000000000000000e+00 9.8437500000000000e-01 0.0000000000000000e+00  0.0000000000000000e+00 1.0000000000000000e+00 0.0000000000000000e+00  0.0000000000000000e+00 9.8437500000000000e-01 0.0000000000000000e+00  0.0000000000000000e+00 1.0000000000000000e+00 0.0000000000000000e+00  0.0000000000000000e+00 9.8437500000000000e-01 0.0000000000000000e+00  0.0000000000000000e+00 1.0000000000000000e+00 0.0000000000000000e+00  0.0000000000000000e+00 9.8437500000000000e-01 0.0000000000000000e+00  0.0000000000000000e+00 1.0000000000000000e+00 0.0000000000000000e+00  0.0000000000000000e+00 9.8437500000000000e-01 0.0000000000000000e+00  0.0000000000000000e+00 1.0000000000000000e+00 0.0000000000000000e+00  0.0000000000000000e+00 9.8437500000000000e-01 0.0000000000000000e+00  0.0000000000000000e+00 1.0000000000000000e+00 0.0000000000000000e+00  0.0000000000000000e+00 9.8437500000000000e-01 0.0000000000000000e+00  0.0000000000000000e+00 1.0000000000000000e+00 0.0000000000000000e+00  0.0000000000000000e+00 9.8437500000000000e-01 0.0000000000000000e+00  0.0000000000000000e+00 1.0000000000000000e+00 0.0000000000000000e+00  0.0000000000000000e+00 9.8437500000000000e-01 0.0000000000000000e+00  0.0000000000000000e+00 1.0000000000000000e+00 0.0000000000000000e+00  0.0000000000000000e+00 9.8437500000000000e-01 0.0000000000000000e+00  0.0000000000000000e+00 1.0000000000000000e+00 0.0000000000000000e+00  0.0000000000000000e+00 9.8437500000000000e-01 0.0000000000000000e+00  0.0000000000000000e+00 1.0000000000000000e+00 0.0000000000000000e+00  0.0000000000000000e+00 9.8437500000000000e-01 0.0000000000000000e+00  0.0000000000000000e+00 1.0000000000000000e+00 0.0000000000000000e+00  0.0000000000000000e+00 9.8437500000000000e-01 0.0000000000000000e+00  0.0000000000000000e+00 1.0000000000000000e+00 0.0000000000000000e+00  0.0000000000000000e+00 9.8437500000000000e-01 0.0000000000000000e+00  0.0000000000000000e+00 1.0000000000000000e+00 0.0000000000000000e+00  0.0000000000000000e+00 9.8437500000000000e-01 0.0000000000000000e+00  0.0000000000000000e+00 1.0000000000000000e+00 0.0000000000000000e+00  0.0000000000000000e+00 9.8437500000000000e-01 0.0000000000000000e+00  0.0000000000000000e+00 1.0000000000000000e+00 0.0000000000000000e+00  0.0000000000000000e+00 9.8437500000000000e-01 0.0000000000000000e+00  0.0000000000000000e+00 1.0000000000000000e+00 0.0000000000000000e+00  0.0000000000000000e+00 9.8437500000000000e-01 0.0000000000000000e+00  0.0000000000000000e+00 1.0000000000000000e+00 0.0000000000000000e+00  0.0000000000000000e+00 9.8437500000000000e-01 0.0000000000000000e+00  0.0000000000000000e+00 1.0000000000000000e+00 0.0000000000000000e+00  0.0000000000000000e+00 9.8437500000000000e-01 0.0000000000000000e+00  0.0000000000000000e+00 1.0000000000000000e+00 0.0000000000000000e+00  0.0000000000000000e+00 9.8437500000000000e-01 0.0000000000000000e+00  0.0000000000000000e+00 1.0000000000000000e+00 0.0000000000000000e+00  0.0000000000000000e+00 9.8437500000000000e-01 0.0000000000000000e+00  0.0000000000000000e+00 1.0000000000000000e+00 0.0000000000000000e+00  0.0000000000000000e+00 9.8437500000000000e-01 0.0000000000000000e+00  0.0000000000000000e+00 1.0000000000000000e+00 0.0000000000000000e+00  0.0000000000000000e+00 9.8437500000000000e-01 0.0000000000000000e+00  0.0000000000000000e+00 1.0000000000000000e+00 0.0000000000000000e+00  0.0000000000000000e+00 9.8437500000000000e-01 0.0000000000000000e+00  0.0000000000000000e+00 1.0000000000000000e+00 0.0000000000000000e+00  0.0000000000000000e+00 9.8437500000000000e-01 0.0000000000000000e+00  0.0000000000000000e+00 1.0000000000000000e+00 0.0000000000000000e+00  0.0000000000000000e+00 9.8437500000000000e-01 0.0000000000000000e+00  0.0000000000000000e+00 9.9999999999999989e-01 0.0000000000000000e+00  0.0000000000000000e+00 9.8437499999999989e-01 0.0000000000000000e+00  0.0000000000000000e+00 1.0000000000000002e+00 0.0000000000000000e+00  0.0000000000000000e+00 9.8437500000000022e-01 0.0000000000000000e+00  0.0000000000000000e+00 1.0000000000000000e+00 0.0000000000000000e+00  0.0000000000000000e+00 9.8437500000000000e-01 0.0000000000000000e+00  0.0000000000000000e+00 9.9999999999999989e-01 0.0000000000000000e+00  0.0000000000000000e+00 9.8437499999999989e-01 0.0000000000000000e+00  0.0000000000000000e+00 1.0000000000000002e+00 0.0000000000000000e+00  0.0000000000000000e+00 9.8437500000000022e-01 0.0000000000000000e+00  0.0000000000000000e+00 1.0000000000000000e+00 0.0000000000000000e+00  0.0000000000000000e+00 9.8437500000000000e-01 0.0000000000000000e+00  0.0000000000000000e+00 9.9999999999999989e-01 0.0000000000000000e+00  0.0000000000000000e+00 9.8437499999999989e-01 0.0000000000000000e+00  0.0000000000000000e+00 1.0000000000000000e+00 0.0000000000000000e+00  0.0000000000000000e+00 9.8437500000000000e-01 0.0000000000000000e+00  0.0000000000000000e+00 1.0000000000000000e+00 0.0000000000000000e+00  0.0000000000000000e+00 9.8437500000000000e-01 0.0000000000000000e+00  0.0000000000000000e+00 9.9999999999999989e-01 0.0000000000000000e+00  0.0000000000000000e+00 9.8437499999999989e-01 0.0000000000000000e+00  0.0000000000000000e+00 1.0000000000000000e+00 0.0000000000000000e+00  0.0000000000000000e+00 9.8437500000000000e-01 0.0000000000000000e+00  0.0000000000000000e+00 1.0000000000000000e+00 0.0000000000000000e+00  0.0000000000000000e+00 9.8437500000000000e-01 0.0000000000000000e+00  0.0000000000000000e+00 9.9999999999999989e-01 0.0000000000000000e+00  0.0000000000000000e+00 9.8437499999999989e-01 0.0000000000000000e+00  0.0000000000000000e+00 1.0000000000000000e+00 0.0000000000000000e+00  0.0000000000000000e+00 9.8437500000000000e-01 0.0000000000000000e+00  0.0000000000000000e+00 1.0000000000000000e+00 0.0000000000000000e+00  0.0000000000000000e+00 9.8437500000000000e-01 0.0000000000000000e+00  0.0000000000000000e+00 1.0000000000000000e+00 0.0000000000000000e+00  0.0000000000000000e+00 9.8437500000000000e-01 0.0000000000000000e+00  0.0000000000000000e+00 1.0000000000000000e+00 0.0000000000000000e+00  0.0000000000000000e+00 9.8437500000000000e-01 0.0000000000000000e+00  0.0000000000000000e+00 1.0000000000000000e+00 0.0000000000000000e+00  0.0000000000000000e+00 9.8437500000000000e-01 0.0000000000000000e+00  0.0000000000000000e+00 9.9999999999999989e-01 0.0000000000000000e+00  0.0000000000000000e+00 9.8437499999999989e-01 0.0000000000000000e+00  0.0000000000000000e+00 1.0000000000000000e+00 0.0000000000000000e+00  0.0000000000000000e+00 9.8437500000000000e-01 0.0000000000000000e+00  0.0000000000000000e+00 1.0000000000000000e+00 0.0000000000000000e+00  0.0000000000000000e+00 9.8437500000000000e-01 0.0000000000000000e+00  0.0000000000000000e+00 9.9999999999999989e-01 0.0000000000000000e+00  0.0000000000000000e+00 9.8437499999999989e-01 0.0000000000000000e+00  0.0000000000000000e+00 1.0000000000000000e+00 0.0000000000000000e+00  0.0000000000000000e+00 9.8437500000000000e-01 0.0000000000000000e+00  0.0000000000000000e+00 1.0000000000000000e+00 0.0000000000000000e+00  0.0000000000000000e+00 9.8437500000000000e-01 0.0000000000000000e+00  0.0000000000000000e+00 9.9999999999999989e-01 0.0000000000000000e+00  0.0000000000000000e+00 9.8437499999999989e-01 0.0000000000000000e+00  0.0000000000000000e+00 1.0000000000000000e+00 0.0000000000000000e+00  0.0000000000000000e+00 9.8437500000000000e-01 0.0000000000000000e+00  0.0000000000000000e+00 1.0000000000000000e+00 0.0000000000000000e+00  0.0000000000000000e+00 9.8437500000000000e-01 0.0000000000000000e+00  0.0000000000000000e+00 9.9999999999999989e-01 0.0000000000000000e+00  0.0000000000000000e+00 9.8437499999999989e-01 0.0000000000000000e+00  0.0000000000000000e+00 1.0000000000000000e+00 0.0000000000000000e+00  0.0000000000000000e+00 9.8437500000000000e-01 0.0000000000000000e+00  0.0000000000000000e+00 1.0000000000000000e+00 0.0000000000000000e+00  0.0000000000000000e+00 9.8437500000000000e-01 0.0000000000000000e+00  0.0000000000000000e+00 9.9999999999999989e-01 0.0000000000000000e+00  0.0000000000000000e+00 9.8437499999999989e-01 0.0000000000000000e+00  0.0000000000000000e+00 1.0000000000000000e+00 0.0000000000000000e+00  0.0000000000000000e+00 9.8437500000000000e-01 0.0000000000000000e+00  0.0000000000000000e+00 1.0000000000000000e+00 0.0000000000000000e+00  0.0000000000000000e+00 9.8437500000000000e-01 0.0000000000000000e+00  0.0000000000000000e+00 1.0000000000000000e+00 0.0000000000000000e+00  0.0000000000000000e+00 9.8437500000000000e-01 0.0000000000000000e+00  0.0000000000000000e+00 1.0000000000000000e+00 0.0000000000000000e+00  0.0000000000000000e+00 9.8437500000000000e-01 0.0000000000000000e+00  0.0000000000000000e+00 1.0000000000000000e+00 0.0000000000000000e+00  0.0000000000000000e+00 9.8437500000000000e-01 0.0000000000000000e+00  0.0000000000000000e+00 1.0000000000000000e+00 0.0000000000000000e+00  0.0000000000000000e+00 9.8437500000000000e-01 0.0000000000000000e+00  0.0000000000000000e+00 1.0000000000000000e+00 0.0000000000000000e+00  0.0000000000000000e+00 9.8437500000000000e-01 0.0000000000000000e+00  0.0000000000000000e+00 9.9999999999999989e-01 0.0000000000000000e+00  0.0000000000000000e+00 9.8437499999999989e-01 0.0000000000000000e+00  0.0000000000000000e+00 1.0000000000000000e+00 0.0000000000000000e+00  0.0000000000000000e+00 9.8437500000000000e-01 0.0000000000000000e+00  0.0000000000000000e+00 1.0000000000000000e+00 0.0000000000000000e+00  0.0000000000000000e+00 9.8437500000000000e-01 0.0000000000000000e+00  0.0000000000000000e+00 1.0000000000000000e+00 0.0000000000000000e+00  0.0000000000000000e+00 9.8437500000000000e-01 0.0000000000000000e+00  0.0000000000000000e+00 1.0000000000000000e+00 0.0000000000000000e+00  0.0000000000000000e+00 9.8437500000000000e-01 0.0000000000000000e+00  0.0000000000000000e+00 9.9999999999999978e-01 0.0000000000000000e+00  0.0000000000000000e+00 9.8437499999999978e-01 0.0000000000000000e+00  0.0000000000000000e+00 9.9999999999999989e-01 0.0000000000000000e+00  0.0000000000000000e+00 9.8437499999999989e-01 0.0000000000000000e+00  0.0000000000000000e+00 1.0000000000000000e+00 0.0000000000000000e+00  0.0000000000000000e+00 9.8437500000000000e-01 0.0000000000000000e+00  0.0000000000000000e+00 9.9999999999999989e-01 0.0000000000000000e+00  0.0000000000000000e+00 9.8437499999999989e-01 0.0000000000000000e+00  0.0000000000000000e+00 9.9999999999999989e-01 0.0000000000000000e+00  0.0000000000000000e+00 9.8437499999999989e-01 0.0000000000000000e+00  0.0000000000000000e+00 1.0000000000000000e+00 0.0000000000000000e+00  0.0000000000000000e+00 9.8437500000000000e-01 0.0000000000000000e+00  0.0000000000000000e+00 9.9999999999999978e-01 0.0000000000000000e+00  0.0000000000000000e+00 9.8437499999999978e-01 0.0000000000000000e+00  0.0000000000000000e+00 9.9999999999999989e-01 0.0000000000000000e+00  0.0000000000000000e+00 9.8437499999999989e-01 0.0000000000000000e+00  0.0000000000000000e+00 1.0000000000000000e+00 0.0000000000000000e+00  0.0000000000000000e+00 9.8437500000000000e-01 0.0000000000000000e+00  0.0000000000000000e+00 9.9999999999999989e-01 0.0000000000000000e+00  0.0000000000000000e+00 9.8437499999999989e-01 0.0000000000000000e+00  0.0000000000000000e+00 9.9999999999999989e-01 0.0000000000000000e+00  0.0000000000000000e+00 9.8437499999999989e-01 0.0000000000000000e+00  0.0000000000000000e+00 1.0000000000000000e+00 0.0000000000000000e+00  0.0000000000000000e+00 9.8437500000000000e-01 0.0000000000000000e+00  0.0000000000000000e+00 1.0000000000000000e+00 0.0000000000000000e+00  0.0000000000000000e+00 9.8437500000000000e-01 0.0000000000000000e+00  0.0000000000000000e+00 9.9999999999999989e-01 0.0000000000000000e+00  0.0000000000000000e+00 9.8437499999999989e-01 0.0000000000000000e+00  0.0000000000000000e+00 1.0000000000000000e+00 0.0000000000000000e+00  0.0000000000000000e+00 9.8437500000000000e-01 0.0000000000000000e+00  0.0000000000000000e+00 1.0000000000000000e+00 0.0000000000000000e+00  0.0000000000000000e+00 9.8437500000000000e-01 0.0000000000000000e+00  0.0000000000000000e+00 9.9999999999999989e-01 0.0000000000000000e+00  0.0000000000000000e+00 9.8437499999999989e-01 0.0000000000000000e+00  0.0000000000000000e+00 1.0000000000000000e+00 0.0000000000000000e+00  0.0000000000000000e+00 9.8437500000000000e-01 0.0000000000000000e+00  0.0000000000000000e+00 9.9999999999999989e-01 0.0000000000000000e+00  0.0000000000000000e+00 9.8437499999999989e-01 0.0000000000000000e+00  0.0000000000000000e+00 9.9999999999999989e-01 0.0000000000000000e+00  0.0000000000000000e+00 9.8437499999999989e-01 0.0000000000000000e+00  0.0000000000000000e+00 9.9999999999999989e-01 0.0000000000000000e+00  0.0000000000000000e+00 9.8437499999999989e-01 0.0000000000000000e+00  0.0000000000000000e+00 9.9999999999999989e-01 0.0000000000000000e+00  0.0000000000000000e+00 9.8437499999999989e-01 0.0000000000000000e+00  0.0000000000000000e+00 9.9999999999999978e-01 0.0000000000000000e+00  0.0000000000000000e+00 9.8437499999999978e-01 0.0000000000000000e+00  0.0000000000000000e+00 9.9999999999999989e-01 0.0000000000000000e+00  0.0000000000000000e+00 9.8437499999999989e-01 0.0000000000000000e+00  0.0000000000000000e+00 9.9999999999999989e-01 0.0000000000000000e+00  0.0000000000000000e+00 9.8437499999999989e-01 0.0000000000000000e+00  0.0000000000000000e+00 9.9999999999999978e-01 0.0000000000000000e+00  0.0000000000000000e+00 9.8437499999999978e-01 0.0000000000000000e+00  0.0000000000000000e+00 9.9999999999999978e-01 0.0000000000000000e+00  0.0000000000000000e+00 9.8437499999999978e-01 0.0000000000000000e+00  0.0000000000000000e+00 9.9999999999999989e-01 0.0000000000000000e+00  0.0000000000000000e+00 9.8437499999999989e-01 0.0000000000000000e+00  0.0000000000000000e+00 9.9999999999999978e-01 0.0000000000000000e+00  0.0000000000000000e+00 9.8437499999999978e-01 0.0000000000000000e+00  0.0000000000000000e+00 9.9999999999999978e-01 0.0000000000000000e+00  0.0000000000000000e+00 9.8437499999999978e-01 0.0000000000000000e+00  0.0000000000000000e+00 9.9999999999999989e-01 0.0000000000000000e+00  0.0000000000000000e+00 9.8437499999999989e-01 0.0000000000000000e+00  0.0000000000000000e+00 9.9999999999999978e-01 0.0000000000000000e+00  0.0000000000000000e+00 9.8437499999999978e-01 0.0000000000000000e+00  0.0000000000000000e+00 9.9999999999999978e-01 0.0000000000000000e+00  0.0000000000000000e+00 9.8437499999999978e-01 0.0000000000000000e+00  0.0000000000000000e+00 9.9999999999999989e-01 0.0000000000000000e+00  0.0000000000000000e+00 9.8437499999999989e-01 0.0000000000000000e+00  0.0000000000000000e+00 9.9999999999999989e-01 0.0000000000000000e+00  0.0000000000000000e+00 9.8437499999999989e-01 0.0000000000000000e+00  0.0000000000000000e+00 9.9999999999999978e-01 0.0000000000000000e+00  0.0000000000000000e+00 9.8437499999999978e-01 0.0000000000000000e+00  0.0000000000000000e+00 9.9999999999999989e-01 0.0000000000000000e+00  0.0000000000000000e+00 9.8437499999999989e-01 0.0000000000000000e+00  0.0000000000000000e+00 9.9999999999999989e-01 0.0000000000000000e+00  0.0000000000000000e+00 9.8437499999999989e-01 0.0000000000000000e+00  0.0000000000000000e+00 9.9999999999999978e-01 0.0000000000000000e+00  0.0000000000000000e+00 9.8437499999999978e-01 0.0000000000000000e+00  0.0000000000000000e+00 9.9999999999999989e-01 0.0000000000000000e+00  0.0000000000000000e+00 9.8437499999999989e-01 0.0000000000000000e+00  0.0000000000000000e+00 1.0000000000000000e+00 0.0000000000000000e+00  0.0000000000000000e+00 9.8437500000000000e-01 0.0000000000000000e+00  0.0000000000000000e+00 1.0000000000000000e+00 0.0000000000000000e+00  0.0000000000000000e+00 9.8437500000000000e-01 0.0000000000000000e+00  0.0000000000000000e+00 9.9999999999999989e-01 0.0000000000000000e+00  0.0000000000000000e+00 9.8437499999999989e-01 0.0000000000000000e+00  0.0000000000000000e+00 1.0000000000000000e+00 0.0000000000000000e+00  0.0000000000000000e+00 9.8437500000000000e-01 0.0000000000000000e+00  0.0000000000000000e+00 1.0000000000000000e+00 0.0000000000000000e+00  0.0000000000000000e+00 9.8437500000000000e-01 0.0000000000000000e+00  0.0000000000000000e+00 9.9999999999999989e-01 0.0000000000000000e+00  0.0000000000000000e+00 9.8437499999999989e-01 0.0000000000000000e+00  0.0000000000000000e+00 9.9999999999999989e-01 0.0000000000000000e+00  0.0000000000000000e+00 9.8437499999999989e-01 0.0000000000000000e+00  0.0000000000000000e+00 1.0000000000000000e+00 0.0000000000000000e+00  0.0000000000000000e+00 9.8437500000000000e-01 0.0000000000000000e+00  0.0000000000000000e+00 9.9999999999999989e-01 0.0000000000000000e+00  0.0000000000000000e+00 9.8437499999999989e-01 0.0000000000000000e+00  0.0000000000000000e+00 9.9999999999999989e-01 0.0000000000000000e+00  0.0000000000000000e+00 9.8437499999999989e-01 0.0000000000000000e+00  0.0000000000000000e+00 9.9999999999999978e-01 0.0000000000000000e+00  0.0000000000000000e+00 9.8437499999999978e-01 0.0000000000000000e+00  0.0000000000000000e+00 9.8437499999999989e-01 0.0000000000000000e+00  0.0000000000000000e+00 9.6875000000000000e-01 0.0000000000000000e+00  0.0000000000000000e+00 9.6875000000000000e-01 0.0000000000000000e+00  0.0000000000000000e+00 9.6875000000000000e-01 0.0000000000000000e+00  0.0000000000000000e+00 9.6875000000000000e-01 0.0000000000000000e+00  0.0000000000000000e+00 9.6875000000000000e-01 0.0000000000000000e+00  0.0000000000000000e+00 9.6875000000000000e-01 0.0000000000000000e+00  0.0000000000000000e+00 9.6875000000000000e-01 0.0000000000000000e+00  0.0000000000000000e+00 9.6875000000000000e-01 0.0000000000000000e+00  0.0000000000000000e+00 9.6875000000000000e-01 0.0000000000000000e+00  0.0000000000000000e+00 9.6875000000000000e-01 0.0000000000000000e+00  0.0000000000000000e+00 9.6875000000000000e-01 0.0000000000000000e+00  0.0000000000000000e+00 9.6875000000000000e-01 0.0000000000000000e+00  0.0000000000000000e+00 9.6875000000000000e-01 0.0000000000000000e+00  0.0000000000000000e+00 9.6875000000000000e-01 0.0000000000000000e+00  0.0000000000000000e+00 9.6875000000000000e-01 0.0000000000000000e+00  0.0000000000000000e+00 9.6875000000000000e-01 0.0000000000000000e+00  0.0000000000000000e+00 9.6875000000000000e-01 0.0000000000000000e+00  0.0000000000000000e+00 9.6875000000000000e-01 0.0000000000000000e+00  0.0000000000000000e+00 9.6875000000000000e-01 0.0000000000000000e+00  0.0000000000000000e+00 9.6875000000000000e-01 0.0000000000000000e+00  0.0000000000000000e+00 9.6875000000000000e-01 0.0000000000000000e+00  0.0000000000000000e+00 9.6875000000000000e-01 0.0000000000000000e+00  0.0000000000000000e+00 9.6875000000000000e-01 0.0000000000000000e+00  0.0000000000000000e+00 9.6875000000000000e-01 0.0000000000000000e+00  0.0000000000000000e+00 9.6875000000000000e-01 0.0000000000000000e+00  0.0000000000000000e+00 9.6875000000000000e-01 0.0000000000000000e+00  0.0000000000000000e+00 9.6875000000000000e-01 0.0000000000000000e+00  0.0000000000000000e+00 9.6875000000000000e-01 0.0000000000000000e+00  0.0000000000