<?xml version="1.0"?>
<VTKFile type="UnstructuredGrid"  version="0.1"  >
<UnstructuredGrid>
<Piece  NumberOfPoints="8310" NumberOfCells="16235">
<Points>
<DataArray  type="Float64"  NumberOfComponents="3"  format="ascii">0.71484375 0.9999999999999999 0  0.716796875 0.9999999999999999 0  0.716796875 0.9863281249999999 0  0.71875 1 0  0.71875 0.9863281250000002 0  0.720703125 1 0  0.720703125 0.986328125 0  0.72265625 0.9999999999999999 0  0.72265625 0.9863281249999999 0  0.724609375 1 0  0.724609375 0.986328125 0  0.7265625 0.9999999999999999 0  0.7265625 0.9863281249999999 0  0.728515625 0.9999999999999999 0  0.728515625 0.9863281249999999 0  0.73046875 0.9999999999999998 0  0.73046875 0.9863281249999998 0  0.732421875 0.9999999999999998 0  0.732421875 0.9863281249999998 0  0.734375 0.9999999999999999 0  0.734375 0.9863281249999999 0  0.736328125 0.9999999999999999 0  0.736328125 0.9863281249999999 0  0.73828125 1 0  0.73828125 0.986328125 0  0.740234375 1 0  0.740234375 0.986328125 0  0.7421875 1 0  0.7421875 0.986328125 0  0.744140625 1 0  0.744140625 0.986328125 0  0.74609375 1 0  0.74609375 0.986328125 0  0.748046875 1 0  0.748046875 0.986328125 0  0.75 0.9999999999999999 0  0.75 0.9863281249999999 0  0.751953125 0.9999999999999999 0  0.751953125 0.9863281249999999 0  0.75390625 1 0  0.75390625 0.986328125 0  0.755859375 0.9999999999999999 0  0.755859375 0.9863281249999999 0  0.7578125 0.9999999999999999 0  0.7578125 0.9863281249999999 0  0.759765625 1 0  0.759765625 0.986328125 0  0.76171875 0.9999999999999998 0  0.76171875 0.9863281249999998 0  0.763671875 1 0  0.763671875 0.986328125 0  0.765625 1 0  0.765625 0.986328125 0  0.767578125 0.9999999999999999 0  0.767578125 0.9863281249999999 0  0.76953125 1 0  0.76953125 0.986328125 0  0.771484375 1 0  0.771484375 0.986328125 0  0.7734375 0.9999999999999999 0  0.7734375 0.9863281249999999 0  0.775390625 1 0  0.775390625 0.986328125 0  0.77734375 1 0  0.77734375 0.986328125 0  0.779296875 0.9999999999999999 0  0.779296875 0.9863281249999999 0  0.78125 1 0  0.78125 0.986328125 0  0.783203125 1 0  0.783203125 0.986328125 0  0.78515625 1 0  0.78515625 0.986328125 0  0.787109375 0.9999999999999999 0  0.787109375 0.9863281249999999 0  0.7890625 0.9999999999999999 0  0.7890625 0.9863281249999999 0  0.791015625 0.9999999999999999 0  0.791015625 0.9863281249999999 0  0.79296875 1 0  0.79296875 0.986328125 0  0.794921875 0.9999999999999998 0  0.794921875 0.9863281249999998 0  0.796875 0.9999999999999999 0  0.796875 0.9863281249999999 0  0.798828125 0.9999999999999999 0  0.798828125 0.9863281249999999 0  0.80078125 0.9999999999999999 0  0.80078125 0.9863281249999999 0  0.802734375 0.9999999999999999 0  0.802734375 0.9863281249999999 0  0.8046875 0.9999999999999999 0  0.8046875 0.9863281249999999 0  0.806640625 0.9999999999999999 0  0.806640625 0.9863281249999999 0  0.80859375 1 0  0.80859375 0.9863281250000002 0  0.810546875 0.9999999999999999 0  0.810546875 0.9863281249999999 0  0.8125 0.9999999999999999 0  0.8125 0.9863281249999999 0  0.814453125 1 0  0.814453125 0.986328125 0  0.81640625 1 0  0.81640625 0.986328125 0  0.818359375 1 0  0.818359375 0.986328125 0  0.8203125 1 0  0.8203125 0.986328125 0  0.822265625 1 0  0.822265625 0.986328125 0  0.82421875 1 0  0.82421875 0.986328125 0  0.826171875 1 0  0.826171875 0.986328125 0  0.828125 1 0  0.828125 0.986328125 0  0.830078125 1 0  0.830078125 0.986328125 0  0.83203125 1 0  0.83203125 0.9863281250000002 0  0.833984375 0.9999999999999998 0  0.833984375 0.9863281249999998 0  0.8359375 0.9999999999999998 0  0.8359375 0.9863281249999998 0  0.837890625 1 0  0.837890625 0.986328125 0  0.83984375 0.9999999999999999 0  0.83984375 0.9863281249999999 0  0.841796875 0.9999999999999999 0  0.841796875 0.9863281249999999 0  0.84375 1 0  0.84375 0.986328125 0  0.845703125 0.9999999999999999 0  0.845703125 0.9863281249999999 0  0.84765625 0.9999999999999998 0  0.84765625 0.9863281249999998 0  0.849609375 0.9999999999999998 0  0.849609375 0.9863281249999998 0  0.8515625 0.9999999999999999 0  0.8515625 0.9863281249999999 0  0.853515625 0.9999999999999999 0  0.853515625 0.9863281249999999 0  0.85546875 0.9999999999999999 0  0.85546875 0.9863281249999999 0  0.857421875 1.000000000000008 0  0.857421875 0.9863281250000074 0  0.859375 1.000000000003815 0  0.859375 0.9863281250037549 0  0.861328125 1.000000000025145 0  0.861328125 0.9863281250247525 0  0.86328125 1.000000000079334 0  0.86328125 0.9863281250780943 0  0.865234375 1.000000000181712 0  0.865234375 0.9863281251788729 0  0.8671875 1.000000000347614 0  0.8671875 0.9863281253421827 0  0.869140625 1.000000000592373 0  0.869140625 0.9863281255831174 0  0.87109375 1.000000000931323 0  0.87109375 0.9863281259167707 0  0.873046875 1.000000001379795 0  0.873046875 0.9863281263582359 0  0.875 1.000000001953125 0  0.875 0.9863281269226072 0  0.876953125 1.000000002666644 0  0.876953125 0.9863281276249781 0  0.87890625 1.000000003535688 0  0.87890625 0.9863281284804426 0  0.880859375 1.000000004575587 0  0.880859375 0.9863281295040939 0  0.8828125 1.000000005801678 0  0.8828125 0.9863281307110265 0  0.884765625 1.000000007229291 0  0.884765625 0.9863281321163333 0  0.88671875 1.000000008873761 0  0.88671875 0.9863281337351083 0  0.888671875 1.00000001075042 0  0.888671875 0.986328135582445 0  0.890625 1.000000012874603 0  0.890625 0.9863281376734377 0  0.892578125 1.000000015261643 0  0.892578125 0.9863281400231795 0  0.89453125 1.000000017926872 0  0.89453125 0.9863281426467644 0  0.896484375 1.000000020885624 0  0.896484375 0.9863281455592861 0  0.8984375 1.000000024153233 0  0.8984375 0.9863281487758383 0  0.900390625 1.000000027745031 0  0.900390625 0.9863281523115146 0  0.90234375 1.000000031676352 0  0.90234375 0.986328156181409 0  0.904296875 1.00000003596253 0  0.904296875 0.9863281604006151 0  0.90625 1.000000040618896 0  0.90625 0.986328164984226 0  0.908203125 1.000000045660786 0  0.908203125 0.9863281699473365 0  0.91015625 1.000000051103532 0  0.91015625 0.9863281753050396 0  0.912109375 1.000000056962468 0  0.912109375 0.986328181072429 0  0.9140625 1.000000063252926 0  0.9140625 0.9863281872645988 0  0.916015625 1.00000006999024 0  0.916015625 0.9863281938966425 0  0.91796875 1.000000077189743 0  0.91796875 0.9863282009836537 0  0.919921875 1.000000084866769 0  0.919921875 0.9863282085407261 0  0.921875 1.000000093036651 0  0.921875 0.9863282165829538 0  0.923828125 1.000000101714723 0  0.923828125 0.9863282251254301 0  0.92578125 1.000000110916316 0  0.92578125 0.9863282341832489 0  0.927734375 1.000000120656766 0  0.927734375 0.986328243771504 0  0.9296875 1.000000130951404 0  0.9296875 0.9863282539052887 0  0.931640625 1.000000141815565 0  0.931640625 0.9863282645996971 0  0.93359375 1.000000153264582 0  0.93359375 0.9863282758698229 0  0.935546875 1.000000165313788 0  0.935546875 0.9863282877307599 0  0.9375 1.000000177978516 0  0.9375 0.9863283001976014 0  0.939453125 1.000000191274099 0  0.939453125 0.9863283132854412 0  0.94140625 1.000000205215871 0  0.94140625 0.9863283270093735 0  0.943359375 1.000000219819166 0  0.943359375 0.9863283413844913 0  0.9453125 1.000000235099316 0  0.9453125 0.9863283564258888 0  0.947265625 1.000000251071654 0  0.947265625 0.9863283721486598 0  0.94921875 1.000000267751515 0  0.94921875 0.9863283885678975 0  0.951171875 1.000000285154231 0  0.951171875 0.9863284056986963 0  0.953125 1.000000303295135 0  0.953125 0.9863284235561489 0  0.955078125 1.000000322189562 0  0.955078125 0.98632844215535 0  0.95703125 1.000000341852844 0  0.95703125 0.9863284615113929 0  0.958984375 1.000000362300314 0  0.958984375 0.9863284816393714 0  0.9609375 1.000000383547306 0  0.9609375 0.9863285025543793 0  0.962890625 1.000000405609153 0  0.962890625 0.9863285242715102 0  0.96484375 1.000000428501189 0  0.96484375 0.9863285468058577 0  0.966796875 1.000000452238746 0  0.966796875 0.9863285701725156 0  0.96875 1.000000476837158 0  0.96875 0.9863285943865776 0  0.970703125 1.000000502311759 0  0.970703125 0.9863286194631377 0  0.97265625 1.000000528677881 0  0.97265625 0.9863286454172889 0  0.974609375 1.000000555950858 0  0.974609375 0.9863286722641257 0  0.9765625 1.000000584146023 0  0.9765625 0.9863287000187411 0  0.978515625 1.000000613278709 0  0.978515625 0.9863287286962293 0  0.98046875 1.000000643364251 0  0.98046875 0.9863287583116841 0  0.982421875 1.00000067441798 0  0.982421875 0.9863287888801987 0  0.984375 1.000000706455231 0  0.984375 0.9863288204168675 0  0.986328125 1.000000739491336 0  0.986328125 0.9863288529367836 0  0.98828125 1.000000773541629 0  0.98828125 0.9863288864550412 0  0.990234375 1.000000808621444 0  0.990234375 0.9863289209867335 0  0.9921875 1.000000844746113 0  0.9921875 0.9863289565469546 0  0.994140625 1.00000088193097 0  0.994140625 0.9863289931507981 0  0.99609375 1.000000920191348 0  0.99609375 0.9863290308133578 0  0.998046875 1.00000095954258 0  0.998046875 0.986329069549727 0  1 1.000001 0  1 0.986329109375 0  0.71875 0.9726562500000002 0  0.716796875 0.9726562499999999 0  0.720703125 0.97265625 0  0.72265625 0.9726562499999999 0  0.724609375 0.97265625 0  0.7265625 0.9726562499999999 0  0.728515625 0.9726562499999999 0  0.73046875 0.9726562499999998 0  0.732421875 0.9726562499999998 0  0.734375 0.9726562499999999 0  0.736328125 0.9726562499999999 0  0.73828125 0.97265625 0  0.740234375 0.97265625 0  0.7421875 0.97265625 0  0.744140625 0.97265625 0  0.74609375 0.97265625 0  0.748046875 0.97265625 0  0.75 0.9726562499999999 0  0.751953125 0.9726562499999999 0  0.75390625 0.97265625 0  0.755859375 0.9726562499999999 0  0.7578125 0.9726562499999999 0  0.759765625 0.97265625 0  0.76171875 0.9726562499999998 0  0.763671875 0.97265625 0  0.765625 0.97265625 0  0.767578125 0.9726562499999999 0  0.76953125 0.97265625 0  0.771484375 0.97265625 0  0.7734375 0.9726562499999999 0  0.775390625 0.97265625 0  0.77734375 0.97265625 0  0.779296875 0.9726562499999999 0  0.78125 0.97265625 0  0.783203125 0.97265625 0  0.7851562
[...]
<PointData  Vectors="f_16"> 
<DataArray  type="Float64"  Name="f_16"  NumberOfComponents="3" format="ascii">0.0000000000000000e+00 9.9999999999999989e-01 0.0000000000000000e+00  0.0000000000000000e+00 9.9999999999999989e-01 0.0000000000000000e+00  0.0000000000000000e+00 9.8437499999999989e-01 0.0000000000000000e+00  0.0000000000000000e+00 1.0000000000000002e+00 0.0000000000000000e+00  0.0000000000000000e+00 9.8437500000000022e-01 0.0000000000000000e+00  0.0000000000000000e+00 1.0000000000000000e+00 0.0000000000000000e+00  0.0000000000000000e+00 9.8437500000000000e-01 0.0000000000000000e+00  0.0000000000000000e+00 9.9999999999999989e-01 0.0000000000000000e+00  0.0000000000000000e+00 9.8437499999999989e-01 0.0000000000000000e+00  0.0000000000000000e+00 1.0000000000000000e+00 0.0000000000000000e+00  0.0000000000000000e+00 9.8437500000000000e-01 0.0000000000000000e+00  0.0000000000000000e+00 9.9999999999999989e-01 0.0000000000000000e+00  0.0000000000000000e+00 9.8437499999999989e-01 0.0000000000000000e+00  0.0000000000000000e+00 9.9999999999999989e-01 0.0000000000000000e+00  0.0000000000000000e+00 9.8437499999999989e-01 0.0000000000000000e+00  0.0000000000000000e+00 9.9999999999999978e-01 0.0000000000000000e+00  0.0000000000000000e+00 9.8437499999999978e-01 0.0000000000000000e+00  0.0000000000000000e+00 9.9999999999999978e-01 0.0000000000000000e+00  0.0000000000000000e+00 9.8437499999999978e-01 0.0000000000000000e+00  0.0000000000000000e+00 9.9999999999999989e-01 0.0000000000000000e+00  0.0000000000000000e+00 9.8437499999999989e-01 0.0000000000000000e+00  0.0000000000000000e+00 9.9999999999999989e-01 0.0000000000000000e+00  0.0000000000000000e+00 9.8437499999999989e-01 0.0000000000000000e+00  0.0000000000000000e+00 1.0000000000000000e+00 0.0000000000000000e+00  0.0000000000000000e+00 9.8437500000000000e-01 0.0000000000000000e+00  0.0000000000000000e+00 1.0000000000000000e+00 0.0000000000000000e+00  0.0000000000000000e+00 9.8437500000000000e-01 0.0000000000000000e+00  0.0000000000000000e+00 1.0000000000000000e+00 0.0000000000000000e+00  0.0000000000000000e+00 9.8437500000000000e-01 0.0000000000000000e+00  0.0000000000000000e+00 1.0000000000000000e+00 0.0000000000000000e+00  0.0000000000000000e+00 9.8437500000000000e-01 0.0000000000000000e+00  0.0000000000000000e+00 1.0000000000000000e+00 0.0000000000000000e+00  0.0000000000000000e+00 9.8437500000000000e-01 0.0000000000000000e+00  0.0000000000000000e+00 1.0000000000000000e+00 0.0000000000000000e+00  0.0000000000000000e+00 9.8437500000000000e-01 0.0000000000000000e+00  0.0000000000000000e+00 9.9999999999999989e-01 0.0000000000000000e+00  0.0000000000000000e+00 9.8437499999999989e-01 0.0000000000000000e+00  0.0000000000000000e+00 9.9999999999999989e-01 0.0000000000000000e+00  0.0000000000000000e+00 9.8437499999999989e-01 0.0000000000000000e+00  0.0000000000000000e+00 1.0000000000000000e+00 0.0000000000000000e+00  0.0000000000000000e+00 9.8437500000000000e-01 0.0000000000000000e+00  0.0000000000000000e+00 9.9999999999999989e-01 0.0000000000000000e+00  0.0000000000000000e+00 9.8437499999999989e-01 0.0000000000000000e+00  0.0000000000000000e+00 9.9999999999999989e-01 0.0000000000000000e+00  0.0000000000000000e+00 9.8437499999999989e-01 0.0000000000000000e+00  0.0000000000000000e+00 1.0000000000000000e+00 0.0000000000000000e+00  0.0000000000000000e+00 9.8437500000000000e-01 0.0000000000000000e+00  0.0000000000000000e+00 9.9999999999999978e-01 0.0000000000000000e+00  0.0000000000000000e+00 9.8437499999999978e-01 0.0000000000000000e+00  0.0000000000000000e+00 1.0000000000000000e+00 0.0000000000000000e+00  0.0000000000000000e+00 9.8437500000000000e-01 0.0000000000000000e+00  0.0000000000000000e+00 1.0000000000000000e+00 0.0000000000000000e+00  0.0000000000000000e+00 9.8437500000000000e-01 0.0000000000000000e+00  0.0000000000000000e+00 9.9999999999999989e-01 0.0000000000000000e+00  0.0000000000000000e+00 9.8437499999999989e-01 0.0000000000000000e+00  0.0000000000000000e+00 1.0000000000000000e+00 0.0000000000000000e+00  0.0000000000000000e+00 9.8437500000000000e-01 0.0000000000000000e+00  0.0000000000000000e+00 1.0000000000000000e+00 0.0000000000000000e+00  0.0000000000000000e+00 9.8437500000000000e-01 0.0000000000000000e+00  0.0000000000000000e+00 9.9999999999999989e-01 0.0000000000000000e+00  0.0000000000000000e+00 9.8437499999999989e-01 0.0000000000000000e+00  0.0000000000000000e+00 1.0000000000000000e+00 0.0000000000000000e+00  0.0000000000000000e+00 9.8437500000000000e-01 0.0000000000000000e+00  0.0000000000000000e+00 1.0000000000000000e+00 0.0000000000000000e+00  0.0000000000000000e+00 9.8437500000000000e-01 0.0000000000000000e+00  0.0000000000000000e+00 9.9999999999999989e-01 0.0000000000000000e+00  0.0000000000000000e+00 9.8437499999999989e-01 0.0000000000000000e+00  0.0000000000000000e+00 1.0000000000000000e+00 0.0000000000000000e+00  0.0000000000000000e+00 9.8437500000000000e-01 0.0000000000000000e+00  0.0000000000000000e+00 1.0000000000000000e+00 0.0000000000000000e+00  0.0000000000000000e+00 9.8437500000000000e-01 0.0000000000000000e+00  0.0000000000000000e+00 1.0000000000000000e+00 0.0000000000000000e+00  0.0000000000000000e+00 9.8437500000000000e-01 0.0000000000000000e+00  0.0000000000000000e+00 9.9999999999999989e-01 0.0000000000000000e+00  0.0000000000000000e+00 9.8437499999999989e-01 0.0000000000000000e+00  0.0000000000000000e+00 9.9999999999999989e-01 0.0000000000000000e+00  0.0000000000000000e+00 9.8437499999999989e-01 0.0000000000000000e+00  0.0000000000000000e+00 9.9999999999999989e-01 0.0000000000000000e+00  0.0000000000000000e+00 9.8437499999999989e-01 0.0000000000000000e+00  0.0000000000000000e+00 1.0000000000000000e+00 0.0000000000000000e+00  0.0000000000000000e+00 9.8437500000000000e-01 0.0000000000000000e+00  0.0000000000000000e+00 9.9999999999999978e-01 0.0000000000000000e+00  0.0000000000000000e+00 9.8437499999999978e-01 0.0000000000000000e+00  0.0000000000000000e+00 9.9999999999999989e-01 0.0000000000000000e+00  0.0000000000000000e+00 9.8437499999999989e-01 0.0000000000000000e+00  0.0000000000000000e+00 9.9999999999999989e-01 0.0000000000000000e+00  0.0000000000000000e+00 9.8437499999999989e-01 0.0000000000000000e+00  0.0000000000000000e+00 9.9999999999999989e-01 0.0000000000000000e+00  0.0000000000000000e+00 9.8437499999999989e-01 0.0000000000000000e+00  0.0000000000000000e+00 9.9999999999999989e-01 0.0000000000000000e+00  0.0000000000000000e+00 9.8437499999999989e-01 0.0000000000000000e+00  0.0000000000000000e+00 9.9999999999999989e-01 0.0000000000000000e+00  0.0000000000000000e+00 9.8437499999999989e-01 0.0000000000000000e+00  0.0000000000000000e+00 9.9999999999999989e-01 0.0000000000000000e+00  0.0000000000000000e+00 9.8437499999999989e-01 0.0000000000000000e+00  0.0000000000000000e+00 1.0000000000000002e+00 0.0000000000000000e+00  0.0000000000000000e+00 9.8437500000000022e-01 0.0000000000000000e+00  0.0000000000000000e+00 9.9999999999999989e-01 0.0000000000000000e+00  0.0000000000000000e+00 9.8437499999999989e-01 0.0000000000000000e+00  0.0000000000000000e+00 9.9999999999999989e-01 0.0000000000000000e+00  0.0000000000000000e+00 9.8437499999999989e-01 0.0000000000000000e+00  0.0000000000000000e+00 1.0000000000000000e+00 0.0000000000000000e+00  0.0000000000000000e+00 9.8437500000000000e-01 0.0000000000000000e+00  0.0000000000000000e+00 1.0000000000000000e+00 0.0000000000000000e+00  0.0000000000000000e+00 9.8437500000000000e-01 0.0000000000000000e+00  0.0000000000000000e+00 1.0000000000000000e+00 0.0000000000000000e+00  0.0000000000000000e+00 9.8437500000000000e-01 0.0000000000000000e+00  0.0000000000000000e+00 1.0000000000000000e+00 0.0000000000000000e+00  0.0000000000000000e+00 9.8437500000000000e-01 0.0000000000000000e+00  0.0000000000000000e+00 1.0000000000000000e+00 0.0000000000000000e+00  0.0000000000000000e+00 9.8437500000000000e-01 0.0000000000000000e+00  0.0000000000000000e+00 1.0000000000000000e+00 0.0000000000000000e+00  0.0000000000000000e+00 9.8437500000000000e-01 0.0000000000000000e+00  0.0000000000000000e+00 1.0000000000000000e+00 0.0000000000000000e+00  0.0000000000000000e+00 9.8437500000000000e-01 0.0000000000000000e+00  0.0000000000000000e+00 1.0000000000000000e+00 0.0000000000000000e+00  0.0000000000000000e+00 9.8437500000000000e-01 0.0000000000000000e+00  0.0000000000000000e+00 1.0000000000000000e+00 0.0000000000000000e+00  0.0000000000000000e+00 9.8437500000000000e-01 0.0000000000000000e+00  0.0000000000000000e+00 1.0000000000000002e+00 0.0000000000000000e+00  0.0000000000000000e+00 9.8437500000000022e-01 0.0000000000000000e+00  0.0000000000000000e+00 9.9999999999999978e-01 0.0000000000000000e+00  0.0000000000000000e+00 9.8437499999999978e-01 0.0000000000000000e+00  0.0000000000000000e+00 9.9999999999999978e-01 0.0000000000000000e+00  0.0000000000000000e+00 9.8437499999999978e-01 0.0000000000000000e+00  0.0000000000000000e+00 1.0000000000000000e+00 0.0000000000000000e+00  0.0000000000000000e+00 9.8437500000000000e-01 0.0000000000000000e+00  0.0000000000000000e+00 9.9999999999999989e-01 0.0000000000000000e+00  0.0000000000000000e+00 9.8437499999999989e-01 0.0000000000000000e+00  0.0000000000000000e+00 9.9999999999999989e-01 0.0000000000000000e+00  0.0000000000000000e+00 9.8437499999999989e-01 0.0000000000000000e+00  0.0000000000000000e+00 1.0000000000000000e+00 0.0000000000000000e+00  0.0000000000000000e+00 9.8437500000000000e-01 0.0000000000000000e+00  0.0000000000000000e+00 9.9999999999999989e-01 0.0000000000000000e+00  0.0000000000000000e+00 9.8437499999999989e-01 0.0000000000000000e+00  0.0000000000000000e+00 9.9999999999999978e-01 0.0000000000000000e+00  0.0000000000000000e+00 9.8437499999999978e-01 0.0000000000000000e+00  0.0000000000000000e+00 9.9999999999999978e-01 0.0000000000000000e+00  0.0000000000000000e+00 9.8437499999999978e-01 0.0000000000000000e+00  0.0000000000000000e+00 9.9999999999999989e-01 0.0000000000000000e+00  0.0000000000000000e+00 9.8437499999999989e-01 0.0000000000000000e+00  0.0000000000000000e+00 9.9999999999999989e-01 0.0000000000000000e+00  0.0000000000000000e+00 9.8437499999999989e-01 0.0000000000000000e+00  0.0000000000000000e+00 9.9999999999999989e-01 0.0000000000000000e+00  0.0000000000000000e+00 9.8437499999999989e-01 0.0000000000000000e+00  0.0000000000000000e+00 1.0000000000000075e+00 0.0000000000000000e+00  0.0000000000000000e+00 9.8437500000000744e-01 0.0000000000000000e+00  0.0000000000000000e+00 1.0000000000038145e+00 0.0000000000000000e+00  0.0000000000000000e+00 9.8437500000375489e-01 0.0000000000000000e+00  0.0000000000000000e+00 1.0000000000251454e+00 0.0000000000000000e+00  0.0000000000000000e+00 9.8437500002475253e-01 0.0000000000000000e+00  0.0000000000000000e+00 1.0000000000793339e+00 0.0000000000000000e+00  0.0000000000000000e+00 9.8437500007809431e-01 0.0000000000000000e+00  0.0000000000000000e+00 1.0000000001817122e+00 0.0000000000000000e+00  0.0000000000000000e+00 9.8437500017887292e-01 0.0000000000000000e+00  0.0000000000000000e+00 1.0000000003476142e+00 0.0000000000000000e+00  0.0000000000000000e+00 9.8437500034218273e-01 0.0000000000000000e+00  0.0000000000000000e+00 1.0000000005923733e+00 0.0000000000000000e+00  0.0000000000000000e+00 9.8437500058311744e-01 0.0000000000000000e+00  0.0000000000000000e+00 1.0000000009313226e+00 0.0000000000000000e+00  0.0000000000000000e+00 9.8437500091677066e-01 0.0000000000000000e+00  0.0000000000000000e+00 1.0000000013797952e+00 0.0000000000000000e+00  0.0000000000000000e+00 9.8437500135823586e-01 0.0000000000000000e+00  0.0000000000000000e+00 1.0000000019531248e+00 0.0000000000000000e+00  0.0000000000000000e+00 9.8437500192260718e-01 0.0000000000000000e+00  0.0000000000000000e+00 1.0000000026666445e+00 0.0000000000000000e+00  0.0000000000000000e+00 9.8437500262497812e-01 0.0000000000000000e+00  0.0000000000000000e+00 1.0000000035356877e+00 0.0000000000000000e+00  0.0000000000000000e+00 9.8437500348044260e-01 0.0000000000000000e+00  0.0000000000000000e+00 1.0000000045755875e+00 0.0000000000000000e+00  0.0000000000000000e+00 9.8437500450409388e-01 0.0000000000000000e+00  0.0000000000000000e+00 1.0000000058016778e+00 0.0000000000000000e+00  0.0000000000000000e+00 9.8437500571102654e-01 0.0000000000000000e+00  0.0000000000000000e+00 1.0000000072292909e+00 0.0000000000000000e+00  0.0000000000000000e+00 9.8437500711633330e-01 0.0000000000000000e+00  0.0000000000000000e+00 1.0000000088737608e+00 0.0000000000000000e+00  0.0000000000000000e+00 9.8437500873510830e-01 0.0000000000000000e+00  0.0000000000000000e+00 1.0000000107504203e+00 0.0000000000000000e+00  0.0000000000000000e+00 9.8437501058244503e-01 0.0000000000000000e+00  0.0000000000000000e+00 1.0000000128746034e+00 0.0000000000000000e+00  0.0000000000000000e+00 9.8437501267343774e-01 0.0000000000000000e+00  0.0000000000000000e+00 1.0000000152616426e+00 0.0000000000000000e+00  0.0000000000000000e+00 9.8437501502317948e-01 0.0000000000000000e+00  0.0000000000000000e+00 1.0000000179268718e+00 0.0000000000000000e+00  0.0000000000000000e+00 9.8437501764676438e-01 0.0000000000000000e+00  0.0000000000000000e+00 1.0000000208856239e+00 0.0000000000000000e+00  0.0000000000000000e+00 9.8437502055928605e-01 0.0000000000000000e+00  0.0000000000000000e+00 1.0000000241532325e+00 0.0000000000000000e+00  0.0000000000000000e+00 9.8437502377583830e-01 0.0000000000000000e+00  0.0000000000000000e+00 1.0000000277450307e+00 0.0000000000000000e+00  0.0000000000000000e+00 9.8437502731151461e-01 0.0000000000000000e+00  0.0000000000000000e+00 1.0000000316763520e+00 0.0000000000000000e+00  0.0000000000000000e+00 9.8437503118140901e-01 0.0000000000000000e+00  0.0000000000000000e+00 1.0000000359625296e+00 0.0000000000000000e+00  0.0000000000000000e+00 9.8437503540061511e-01 0.0000000000000000e+00  0.0000000000000000e+00 1.0000000406188962e+00 0.0000000000000000e+00  0.0000000000000000e+00 9.8437503998422604e-01 0.0000000000000000e+00  0.0000000000000000e+00 1.0000000456607863e+00 0.0000000000000000e+00  0.0000000000000000e+00 9.8437504494733652e-01 0.0000000000000000e+00  0.0000000000000000e+00 1.0000000511035323e+00 0.0000000000000000e+00  0.0000000000000000e+00 9.8437505030503958e-01 0.0000000000000000e+00  0.0000000000000000e+00 1.0000000569624676e+00 0.0000000000000000e+00  0.0000000000000000e+00 9.8437505607242903e-01 0.0000000000000000e+00  0.0000000000000000e+00 1.0000000632529258e+00 0.0000000000000000e+00  0.0000000000000000e+00 9.8437506226459881e-01 0.0000000000000000e+00  0.0000000000000000e+00 1.0000000699902400e+00 0.0000000000000000e+00  0.0000000000000000e+00 9.8437506889664250e-01 0.0000000000000000e+00  0.0000000000000000e+00 1.0000000771897435e+00 0.0000000000000000e+00  0.0000000000000000e+00 9.8437507598365370e-01 0.0000000000000000e+00  0.0000000000000000e+00 1.0000000848667694e+00 0.0000000000000000e+00  0.0000000000000000e+00 9.8437508354072611e-01 0.0000000000000000e+00  0.0000000000000000e+00 1.0000000930366515e+00 0.0000000000000000e+00  0.0000000000000000e+00 9.8437509158295378e-01 0.0000000000000000e+00  0.0000000000000000e+00 1.0000001017147226e+00 0.0000000000000000e+00  0.0000000000000000e+00 9.8437510012543006e-01 0.0000000000000000e+00  0.0000000000000000e+00 1.0000001109163164e+00 0.0000000000000000e+00  0.0000000000000000e+00 9.8437510918324889e-01 0.0000000000000000e+00  0.0000000000000000e+00 1.0000001206567659e+00 0.0000000000000000e+00  0.0000000000000000e+00 9.8437511877150397e-01 0.0000000000000000e+00  0.0000000000000000e+00 1.0000001309514044e+00 0.0000000000000000e+00  0.0000000000000000e+00 9.8437512890528867e-01 0.0000000000000000e+00  0.0000000000000000e+00 1.0000001418155653e+00 0.0000000000000000e+00  0.0000000000000000e+00 9.8437513959969714e-01 0.0000000000000000e+00  0.0000000000000000e+00 1.0000001532645819e+00 0.0000000000000000e+00  0.0000000000000000e+00 9.8437515086982286e-01 0.0000000000000000e+00  0.0000000000000000e+00 1.0000001653137878e+00 0.0000000000000000e+00  0.0000000000000000e+00 9.8437516273075987e-01 0.0000000000000000e+00  0.0000000000000000e+00 1.0000001779785157e+00 0.0000000000000000e+00  0.0000000000000000e+00 9.8437517519760143e-01 0.0000000000000000e+00  0.0000000000000000e+00 1.0000001912740990e+00 0.0000000000000000e+00  0.0000000000000000e+00 9.8437518828544124e-01 0.0000000000000000e+00  0.0000000000000000e+00 1.0000002052158714e+00 0.0000000000000000e+00  0.0000000000000000e+00 9.8437520200937345e-01 0.0000000000000000e+00  0.0000000000000000e+00 1.0000002198191658e+00 0.0000000000000000e+00  0.0000000000000000e+00 9.8437521638449132e-01 0.0000000000000000e+00  0.0000000000000000e+00 1.0000002350993156e+00 0.0000000000000000e+00  0.0000000000000000e+00 9.8437523142588879e-01 0.0000000000000000e+00  0.0000000000000000e+00 1.0000002510716544e+00 0.0000000000000000e+00  0.0000000000000000e+00 9.8437524714865976e-01 0.0000000000000000e+00  0.0000000000000000e+00 1.0000002677515150e+00 0.0000000000000000e+00  0.0000000000000000e+00 9.8437526356789751e-01 0.0000000000000000e+00  0.0000000000000000e+00 1.0000002851542311e+00 0.0000000000000000e+00  0.0000000000000000e+00 9.8437528069869629e-01 0.0000000000000000e+00  0.0000000000000000e+00 1.0000003032951355e+00 0.0000000000000000e+00  0.0000000000000000e+00 9.8437529855614891e-01 0.0000000000000000e+00  0.0000000000000000e+00 1.0000003221895619e+00 0.0000000000000000e+00  0.0000000000000000e+00 9.8437531715534998e-01 0.0000000000000000e+00  0.0000000000000000e+00 1.0000003418528436e+00 0.0000000000000000e+00  0.0000000000000000e+00 9.8437533651139286e-01 0.0000000000000000e+00  0.0000000000000000e+00 1.0000003623003137e+00 0.0000000000000000e+00  0.0000000000000000e+00 9.8437535663937137e-01 0.0000000000000000e+00  0.0000000000000000e+00 1.0000003835473059e+00 0.0000000000000000e+00  0.0000000000000000e+00 9.8437537755437932e-01 0.0000000000000000e+00  0.0000000000000000e+00 1.0000004056091532e+00 0.0000000000000000e+00  0.0000000000000000e+00 9.8437539927151019e-01 0.0000000000000000e+00  0.0000000000000000e+00 1.0000004285011888e+00 0.0000000000000000e+00  0.0000000000000000e+00 9.8437542180585769e-01 0.0000000000000000e+00  0.0000000000000000e+00 1.0000004522387460e+00 0.0000000000000000e+00  0.0000000000000000e+00 9.8437544517251563e-01 0.0000000000000000e+00  0.0000000000000000e+00 1.0000004768371582e+00 0.0000000000000000e+00  0.0000000000000000e+00 9.8437546938657761e-01 0.0000000000000000e+00  0.0000000000000000e+00 1.0000005023117589e+00 0.0000000000000000e+00  0.0000000000000000e+00 9.8437549446313766e-01 0.0000000000000000e+00  0.0000000000000000e+00 1.0000005286778808e+00 0.0000000000000000e+00  0.0000000000000000e+00 9.8437552041728893e-01 0.0000000000000000e+00  0.0000000000000000e+00 1.0000005559508578e+00 0.0000000000000000e+00  0.0000000000000000e+00 9.8437554726412568e-01 0.0000000000000000e+00  0.0000000000000000e+00 1.0000005841460227e+00 0.0000000000000000e+00  0.0000000000000000e+00 9.8437557501874107e-01 0.0000000000000000e+00  0.0000000000000000e+00 1.0000006132787091e+00 0.0000000000000000e+00  0.0000000000000000e+00 9.8437560369622934e-01 0.0000000000000000e+00  0.0000000000000000e+00 1.0000006433642505e+00 0.0000000000000000e+00  0.0000000000000000e+00 9.8437563331168410e-01 0.0000000000000000e+00  0.0000000000000000e+00 1.0000006744179797e+00 0.0000000000000000e+00  0.0000000000000000e+00 9.8437566388019870e-01 0.0000000000000000e+00  0.0000000000000000e+00 1.0000007064552305e+00 0.0000000000000000e+00  0.0000000000000000e+00 9.8437569541686754e-01 0.0000000000000000e+00  0.0000000000000000e+00 1.0000007394913357e+00 0.0000000000000000e+00  0.0000000000000000e+00 9.8437572793678363e-01 0.0000000000000000e+00  0.0000000000000000e+00 1.0000007735416292e+00 0.0000000000000000e+00  0.0000000000000000e+00 9.8437576145504124e-01 0.0000000000000000e+00  0.0000000000000000e+00 1.0000008086214436e+00 0.0000000000000000e+00  0.0000000000000000e+00 9.8437579598673353e-01 0.0000000000000000e+00  0.0000000000000000e+00 1.0000008447461126e+00 0.0000000000000000e+00  0.0000000000