<?xml version="1.0"?>
<VTKFile type="UnstructuredGrid"  version="0.1"  >
<UnstructuredGrid>
<Piece  NumberOfPoints="8252" NumberOfCells="16135">
<Points>
<DataArray  type="Float64"  NumberOfComponents="3"  format="ascii">0.625 0.54296875 0  0.625 0.546875 0  0.62890625 0.546875 0  0.62890625 0.55078125 0  0.625 0.55078125 0  0.6328125 0.55078125 0  0.64453125 0.546875 0  0.6484375 0.546875 0  0.6484375 0.55078125 0  0.64453125 0.55078125 0  0.65234375 0.546875 0  0.65234375 0.55078125 0  0.65625 0.546875 0  0.65625 0.55078125 0  0.66015625 0.55078125 0  0.671875 0.546875 0  0.67578125 0.546875 0  0.67578125 0.55078125 0  0.671875 0.55078125 0  0.6796875 0.55078125 0  0.62109375 0.55078125 0  0.625 0.5546875 0  0.62109375 0.5546875 0  0.62890625 0.5546875 0  0.6328125 0.5546875 0  0.63671875 0.55078125 0  0.63671875 0.5546875 0  0.640625 0.55078125 0  0.640625 0.5546875 0  0.64453125 0.5546875 0  0.6484375 0.5546875 0  0.65234375 0.5546875 0  0.65625 0.5546875 0  0.66015625 0.5546875 0  0.6640625 0.55078125 0  0.6640625 0.5546875 0  0.66796875 0.55078125 0  0.66796875 0.5546875 0  0.671875 0.5546875 0  0.67578125 0.5546875 0  0.6796875 0.5546875 0  0.68359375 0.5546875 0  0.625 0.55859375 0  0.62109375 0.55859375 0  0.62890625 0.55859375 0  0.6328125 0.55859375 0  0.63671875 0.55859375 0  0.640625 0.55859375 0  0.64453125 0.55859375 0  0.6484375 0.55859375 0  0.65234375 0.55859375 0  0.65625 0.55859375 0  0.66015625 0.55859375 0  0.6640625 0.55859375 0  0.66796875 0.55859375 0  0.671875 0.55859375 0  0.67578125 0.55859375 0  0.6796875 0.55859375 0  0.68359375 0.55859375 0  0.6875 0.5546875 0  0.6875 0.55859375 0  0.69140625 0.5546875 0  0.69140625 0.55859375 0  0.6953125 0.5546875 0  0.6953125 0.55859375 0  0.69921875 0.5546875 0  0.69921875 0.55859375 0  0.703125 0.55859375 0  0.625 0.5625 0  0.62109375 0.5625 0  0.62890625 0.5625 0  0.6328125 0.5625 0  0.63671875 0.5625 0  0.640625 0.5625 0  0.64453125 0.5625 0  0.6484375 0.5625 0  0.65234375 0.5625 0  0.65625 0.5625 0  0.66015625 0.5625 0  0.6640625 0.5625 0  0.66796875 0.5625 0  0.671875 0.5625 0  0.67578125 0.5625 0  0.6796875 0.5625 0  0.68359375 0.5625 0  0.6875 0.5625 0  0.69140625 0.5625 0  0.6953125 0.5625 0  0.69921875 0.5625 0  0.703125 0.5625 0  0.70703125 0.5625 0  0.625 0.56640625 0  0.62890625 0.56640625 0  0.6328125 0.56640625 0  0.63671875 0.56640625 0  0.640625 0.56640625 0  0.64453125 0.56640625 0  0.6484375 0.56640625 0  0.65234375 0.56640625 0  0.65625 0.56640625 0  0.66015625 0.56640625 0  0.6640625 0.56640625 0  0.66796875 0.56640625 0  0.671875 0.56640625 0  0.67578125 0.56640625 0  0.6796875 0.56640625 0  0.68359375 0.56640625 0  0.6875 0.56640625 0  0.69140625 0.56640625 0  0.6953125 0.56640625 0  0.69921875 0.56640625 0  0.703125 0.56640625 0  0.70703125 0.56640625 0  0.7109375 0.5625 0  0.7109375 0.56640625 0  0.71484375 0.5625 0  0.71484375 0.56640625 0  0.71875 0.5625 0  0.71875 0.56640625 0  0.72265625 0.5625 0  0.72265625 0.56640625 0  0.7265625 0.5625 0  0.7265625 0.56640625 0  0.73046875 0.5625 0  0.73046875 0.56640625 0  0.734375 0.56640625 0  0.62890625 0.5703125 0  0.625 0.5703125 0  0.6328125 0.5703125 0  0.63671875 0.5703125 0  0.640625 0.5703125 0  0.64453125 0.5703125 0  0.6484375 0.5703125 0  0.65234375 0.5703125 0  0.65625 0.5703125 0  0.66015625 0.5703125 0  0.6640625 0.5703125 0  0.66796875 0.5703125 0  0.671875 0.5703125 0  0.67578125 0.5703125 0  0.6796875 0.5703125 0  0.68359375 0.5703125 0  0.6875 0.5703125 0  0.69140625 0.5703125 0  0.6953125 0.5703125 0  0.69921875 0.5703125 0  0.703125 0.5703125 0  0.70703125 0.5703125 0  0.7109375 0.5703125 0  0.71484375 0.5703125 0  0.71875 0.5703125 0  0.72265625 0.5703125 0  0.7265625 0.5703125 0  0.73046875 0.5703125 0  0.734375 0.5703125 0  0.73828125 0.56640625 0  0.73828125 0.5703125 0  0.7421875 0.5703125 0  0.62109375 0.5703125 0  0.625 0.57421875 0  0.62890625 0.57421875 0  0.6328125 0.57421875 0  0.63671875 0.57421875 0  0.640625 0.57421875 0  0.64453125 0.57421875 0  0.6484375 0.57421875 0  0.65234375 0.57421875 0  0.65625 0.57421875 0  0.66015625 0.57421875 0  0.6640625 0.57421875 0  0.66796875 0.57421875 0  0.671875 0.57421875 0  0.67578125 0.57421875 0  0.6796875 0.57421875 0  0.68359375 0.57421875 0  0.6875 0.57421875 0  0.69140625 0.57421875 0  0.6953125 0.57421875 0  0.69921875 0.57421875 0  0.703125 0.57421875 0  0.70703125 0.57421875 0  0.7109375 0.57421875 0  0.71484375 0.57421875 0  0.71875 0.57421875 0  0.72265625 0.57421875 0  0.7265625 0.57421875 0  0.73046875 0.57421875 0  0.734375 0.57421875 0  0.73828125 0.57421875 0  0.7421875 0.57421875 0  0.74609375 0.5703125 0  0.74609375 0.57421875 0  0.75 0.57421875 0  0.62109375 0.57421875 0  0.625 0.578125 0  0.62890625 0.578125 0  0.6328125 0.578125 0  0.63671875 0.578125 0  0.640625 0.578125 0  0.64453125 0.578125 0  0.6484375 0.578125 0  0.65234375 0.578125 0  0.65625 0.578125 0  0.66015625 0.578125 0  0.6640625 0.578125 0  0.66796875 0.578125 0  0.671875 0.578125 0  0.67578125 0.578125 0  0.6796875 0.578125 0  0.68359375 0.578125 0  0.6875 0.578125 0  0.69140625 0.578125 0  0.6953125 0.578125 0  0.69921875 0.578125 0  0.703125 0.578125 0  0.70703125 0.578125 0  0.7109375 0.578125 0  0.71484375 0.578125 0  0.71875 0.578125 0  0.72265625 0.578125 0  0.7265625 0.578125 0  0.73046875 0.578125 0  0.734375 0.578125 0  0.73828125 0.578125 0  0.7421875 0.578125 0  0.74609375 0.578125 0  0.75 0.578125 0  0.75390625 0.57421875 0  0.75390625 0.578125 0  0.7578125 0.57421875 0  0.7578125 0.578125 0  0.76171875 0.57421875 0  0.76171875 0.578125 0  0.765625 0.57421875 0  0.765625 0.578125 0  0.76953125 0.57421875 0  0.76953125 0.578125 0  0.7734375 0.578125 0  0.62109375 0.578125 0  0.625 0.58203125 0  0.62890625 0.58203125 0  0.6328125 0.58203125 0  0.63671875 0.58203125 0  0.640625 0.58203125 0  0.64453125 0.58203125 0  0.6484375 0.58203125 0  0.65234375 0.58203125 0  0.65625 0.58203125 0  0.66015625 0.58203125 0  0.6640625 0.58203125 0  0.66796875 0.58203125 0  0.671875 0.58203125 0  0.67578125 0.58203125 0  0.6796875 0.58203125 0  0.68359375 0.58203125 0  0.6875 0.58203125 0  0.69140625 0.58203125 0  0.6953125 0.58203125 0  0.69921875 0.58203125 0  0.703125 0.58203125 0  0.70703125 0.58203125 0  0.7109375 0.58203125 0  0.71484375 0.58203125 0  0.71875 0.58203125 0  0.72265625 0.58203125 0  0.7265625 0.58203125 0  0.73046875 0.58203125 0  0.734375 0.58203125 0  0.73828125 0.58203125 0  0.7421875 0.58203125 0  0.74609375 0.58203125 0  0.75 0.58203125 0  0.75390625 0.58203125 0  0.7578125 0.58203125 0  0.76171875 0.58203125 0  0.765625 0.58203125 0  0.76953125 0.58203125 0  0.7734375 0.58203125 0  0.77734375 0.578125 0  0.77734375 0.58203125 0  0.78125 0.578125 0  0.78125 0.58203125 0  0.78515625 0.578125 0  0.78515625 0.58203125 0  0.7890625 0.58203125 0  0.6171875 0.58203125 0  0.62109375 0.58203125 0  0.62109375 0.5859375 0  0.6171875 0.5859375 0  0.625 0.5859375 0  0.62890625 0.5859375 0  0.6328125 0.5859375 0  0.63671875 0.5859375 0  0.640625 0.5859375 0  0.64453125 0.5859375 0  0.6484375 0.5859375 0  0.65234375 0.5859375 0  0.65625 0.5859375 0  0.66015625 0.5859375 0  0.6640625 0.5859375 0  0.66796875 0.5859375 0  0.671875 0.5859375 0  0.67578125 0.5859375 0  0.6796875 0.5859375 0  0.68359375 0.5859375 0  0.6875 0.5859375 0  0.69140625 0.5859375 0  0.6953125 0.5859375 0  0.69921875 0.5859375 0  0.703125 0.5859375 0  0.70703125 0.5859375 0  0.7109375 0.5859375 0  0.71484375 0.5859375 0  0.71875 0.5859375 0  0.72265625 0.5859375 0  0.7265625 0.5859375 0  0.73046875 0.5859375 0  0.734375 0.5859375 0  0.73828125 0.5859375 0  0.7421875 0.5859375 0  0.74609375 0.5859375 0  0.75 0.5859375 0  0.75390625 0.5859375 0  0.7578125 0.5859375 0  0.76171875 0.5859375 0  0.765625 0.5859375 0  0.76953125 0.5859375 0  0.7734375 0.5859375 0  0.77734375 0.5859375 0  0.78125 0.5859375 0  0.78515625 0.5859375 0  0.7890625 0.5859375 0  0.79296875 0.5859375 0  0.62109375 0.58984375 0  0.6171875 0.58984375 0  0.625 0.58984375 0  0.62890625 0.58984375 0  0.6328125 0.58984375 0  0.63671875 0.58984375 0  0.640625 0.58984375 0  0.64453125 0.58984375 0  0.6484375 0.58984375 0  0.65234375 0.58984375 0  0.65625 0.58984375 0  0.66015625 0.58984375 0  0.6640625 0.58984375 0  0.66796875 0.58984375 0  0.671875 0.58984375 0  0.67578125 0.58984375 0  0.6796875 0.58984375 0  0.68359375 0.58984375 0  0.6875 0.58984375 0  0.69140625 0.58984375 0  0.6953125 0.58984375 0  0.69921875 0.58984375 0  0.703125 0.58984375 0  0.70703125 0.58984375 0  0.7109375 0.58984375 0  0.71484375 0.58984375 0  0.71875 0.58984375 0  0.72265625 0.58984375 0  0.7265625 0.58984375 0  0.73046875 0.58984375 0  0.734375 0.58984375 0  0.73828125 0.58984375 0  0.7421875 0.58984375 0  0.74609375 0.58984375 0  0.75 0.58984375 0  0.75390625 0.58984375 0  0.7578125 0.58984375 0  0.76171875 0.58984375 0  0.765625 0.58984375 0  0.76953125 0.58984375 0  0.7734375 0.58984375 0  0.77734375 0.58984375 0  0.78125 0.58984375 0  0.78515625 0.58984375 0  0.7890625 0.58984375 0  0.79296875 0.58984375 0  0.796875 0.5859375 0  0.796875 0.58984375 0  0.80078125 0.58984375 0  0.62109375 0.59375 0  0.6171875 0.59375 0  0.625 0.59375 0  0.62890625 0.59375 0  0.6328125 0.59375 0  0.63671875 0.59375 0  0.640625 0.59375 0  0.64453125 0.59375 0  0.6484375 0.59375 0  0.65234375 0.59375 0  0.65625 0.59375 0  0.66015625 0.59375 0  0.6640625 0.59375 0  0.66796875 0.59375 0  0.671875 0.59375 0  0.67578125 0.59375 0  0.6796875 0.59375 0  0.68359375 0.59375 0  0.6875 0.59375 0  0.69140625 0.59375 0  0.6953125 0.59375 0  0.69921875 0.59375 0  0.703125 0.59375 0  0.70703125 0.59375 0  0.7109375 0.59375 0  0.71484375 0.59375 0  0.71875 0.59375 0  0.72265625 0.59375 0  0.7265625 0.59375 0  0.73046875 0.59375 0  0.734375 0.59375 0  0.73828125 0.59375 0  0.7421875 0.59375 0  0.74609375 0.59375 0  0.75 0.59375 0  0.75390625 0.59375 0  0.7578125 0.59375 0  0.76171875 0.59375 0  0.765625 0.59375 0  0.76953125 0.59375 0  0.7734375 0.59375 0  0.77734375 0.59375 0  0.78125 0.59375 0  0.78515625 0.59375 0  0.7890625 0.5937
[...]
<CellData  Scalars="f_11"> 
<DataArray  type="Float64"  Name="f_11"  format="ascii">9.1414824306063069e-01   9.1168966348402247e-01   9.1260758181944612e-01   9.0266258416163980e-01   8.8251556947045295e-01   8.8370437668787161e-01   8.7729928987827399e-01   8.7854575160441284e-01   8.7191642338533926e-01   8.7321916545169720e-01   8.6772893365926851e-01   8.4272292213676792e-01   8.4863570387390075e-01   8.3804318432976965e-01   9.1435541201944481e-01   9.1518577857411265e-01   9.1006188935595023e-01   9.1093745405355642e-01   9.0010696444516336e-01   9.0654861971561373e-01   8.9555962301355285e-01   8.9653388136759071e-01   8.9085216330815198e-01   8.9188098018959849e-01   8.8597844444563745e-01   8.8706398037835155e-01   8.8093550589859859e-01   8.8207877472250029e-01   8.7572322883539233e-01   8.7692417520836097e-01   8.7034410251386474e-01   8.7160170318663022e-01   8.6483712826279890e-01   8.6611504710675236e-01   8.6345776771773952e-01   8.6046963381946029e-01   8.5761251179937292e-01   8.5901625744099086e-01   8.5162720805101877e-01   8.5307843913766079e-01   8.4550447041601928e-01   8.4266778623544114e-01   8.3655304748956871e-01   8.3810694840691224e-01   8.3173676792729623e-01   9.1260269118357706e-01   9.1340386056403400e-01   9.0830502449381356e-01   9.0914031121354466e-01   9.0386604301848861e-01   9.0474690564697124e-01   8.9383989187972657e-01   8.9477106239355397e-01   8.8913335661500437e-01   8.9011801025917536e-01   8.8426206475137981e-01   8.8530261910910324e-01   8.7924404363653030e-01   8.8032038298184401e-01   8.7401452410351199e-01   8.7516970861093935e-01   8.6863972197281258e-01   8.6985159523960087e-01   8.6310230590737935e-01   8.6436937864390861e-01   8.5740767282187502e-01   8.5872791771393553e-01   8.5589027406076712e-01   8.5296460010842812e-01   8.4990908849108826e-01   8.4701947218196549e-01   8.4112539605572123e-01   8.4258986735412389e-01   8.3484966815019013e-01   8.3636148238525576e-01   8.2843555939895697e-01   8.2877813612588036e-01   8.2066083585359828e-01   8.2220436892426685e-01   8.1390400073797053e-01   8.1556107171148673e-01   8.0708026019605550e-01   8.0838292094835806e-01   8.0012620548951341e-01   8.0187604140998603e-01   7.9484043535142990e-01   9.1106084623495132e-01   9.1180954341382603e-01   9.0645225627204307e-01   9.0755236706754994e-01   9.0197985608198106e-01   9.0283757727951264e-01   8.9199072662156664e-01   8.9827671507430840e-01   8.8728361580033044e-01   8.8822517160446857e-01   8.8241366712432123e-01   8.8341000954441862e-01   8.7737708932389935e-01   8.7842981592477398e-01   8.7217283039122662e-01   8.7328245276657745e-01   8.6680246867445898e-01   8.6796851752878867e-01   8.6126971462773061e-01   8.6252552845517327e-01   8.5561184184066608e-01   8.5688683798841181e-01   8.4976754693975565e-01   8.5106378316151254e-01   8.4542778424030074e-01   8.4680059549007469e-01   8.3929477389884832e-01   8.4071597334047277e-01   8.3174771184124707e-01   8.3322028769093015e-01   8.2533439332040159e-01   8.2685455951507014e-01   8.1878497711704001e-01   8.2035210520654556e-01   8.1171571738450887e-01   8.1371505891972784e-01   8.0528584007811277e-01   8.0694599640261633e-01   7.9834169603136462e-01   8.0004774282743396e-01   7.9127192000468594e-01   7.9302334094211735e-01   7.8587563052288156e-01   9.0905421127177666e-01   9.0474805566472538e-01   9.0550120407245327e-01   9.0030051947528622e-01   9.0109985604364728e-01   8.9537096423726514e-01   8.9622564570411622e-01   8.8530482636787022e-01   8.9152502181447646e-01   8.8043474345296779e-01   8.8138802480922773e-01   8.7539987799458041e-01   8.7640846070917433e-01   8.7019869285490359e-01   8.7126338437649775e-01   8.6483236057890489e-01   8.6595292094106247e-01   8.5930434766678288e-01   8.6047972531711459e-01   8.5788886199179715e-01   8.5910713239973691e-01   8.4778210745637683e-01   8.4906299272917496e-01   8.4227073498417615e-01   8.4312830079452972e-01   8.3607424707259281e-01   8.3745509738702195e-01   8.2980386015522256e-01   8.3123285403429525e-01   8.2339560103454068e-01   8.2487200999928778e-01   8.1685204170622683e-01   8.1837536714617931e-01   8.1017579974349985e-01   8.1174565148515454e-01   8.0336960417973480e-01   8.0498559789746205e-01   7.9643637060557992e-01   7.9809807256889964e-01   7.8937893736266318e-01   7.9108591709999221e-01   7.8219991629750685e-01   7.8395179892915412e-01   7.7450922041008885e-01   7.7669795017801468e-01   7.6709552258449232e-01   7.6893544456471585e-01   7.5956590774134503e-01   7.6145021900088572e-01   7.5192147417860256e-01   7.5384996059046727e-01   7.4416367494599556e-01   7.4614465003345432e-01   7.3629456513672797e-01   7.3831725064907594e-01   7.3037366700311002e-01   9.0261194287305668e-01   9.0332436415377204e-01   8.9816071383813290e-01   8.9891965381358085e-01   8.9323239577440072e-01   8.9437135992348138e-01   8.8848306984049985e-01   8.8933847656880005e-01   8.8358684473745697e-01   8.8449300646449780e-01   8.7331140024250209e-01   8.7949411568452718e-01   8.6809316665237968e-01   8.6914955103493075e-01   8.6273005380533985e-01   8.6380558364940352e-01   8.6144568481467532e-01   8.6256625592680491e-01   8.5318673041739901e-01   8.5436684677640340e-01   8.4616916390211105e-01   8.4740417663739109e-01   8.3971878754107498e-01   8.4100463902067124e-01   8.3359423845567748e-01   8.3492964305903272e-01   8.2773269013290263e-01   8.2911674102216171e-01   8.2133044144439782e-01   8.2276212515816494e-01   8.1479412116256023e-01   8.1627278381433255e-01   8.0812664220884134e-01   8.0965178364692358e-01   8.0133087721139795e-01   8.0290206689588328e-01   7.9440965329246571e-01   7.9602318533637795e-01   7.8736570310006238e-01   7.8902368097040654e-01   7.8020143258233665e-01   7.8190464224085832e-01   7.7252620675470007e-01   7.7467047805883027e-01   7.6512964311923026e-01   7.6692465250407216e-01   7.5761812181262411e-01   7.5945761981866000e-01   7.5000218507725280e-01   7.5188640342953006e-01   7.4226257600873669e-01   7.4419087674537876e-01   7.3441178905850435e-01   7.3638399569947255e-01   7.2644609196379439e-01   7.2846710009801108e-01   7.1837895203831204e-01   7.2043748110780970e-01   7.1230652716550269e-01   9.0466148179668882e-01   9.0035004669855334e-01   9.0102084476567046e-01   8.9589594202160339e-01   8.9661391512463917e-01   8.9129721575267173e-01   8.9206285956092701e-01   8.8621259998736790e-01   8.8702742072549479e-01   8.8131573459080892e-01   8.8217996573158286e-01   8.7109259159194774e-01   8.7201609411911085e-01   8.6589138703974200e-01   8.6686860772931429e-01   8.6470909073353996e-01   8.6573207495511229e-01   8.5662848094698263e-01   8.5771049530826693e-01   8.4930603721509668e-01   8.5044309192060663e-01   8.4347931094522510e-01   8.4466813908675498e-01   8.3750486402200464e-01   8.3874449081114155e-01   8.3179051893191758e-01   8.3267592015028669e-01   8.2553223188201852e-01   8.2687045163731099e-01   8.1913763119137106e-01   8.2052368457055491e-01   8.1260785751438402e-01   8.1403927772425821e-01   8.0594876746636501e-01   8.0742844413967640e-01   7.9916483031037233e-01   8.0069055741201889e-01   7.9225697325470268e-01   7.9382831823759104e-01   7.8522776536866501e-01   7.8684434805600267e-01   7.7807952153469129e-01   7.7974103455062016e-01   7.7081415506201800e-01   7.7252038596152584e-01   7.6304697021251622e-01   7.6479702092498159e-01   7.5556542474228949e-01   7.5735993729626516e-01   7.4795854546836615e-01   7.4979771463734934e-01   7.4023983081253020e-01   7.4212330216919464e-01   7.3241070941184494e-01   7.3433824418880733e-01   7.2447236586250818e-01   7.2644389092584127e-01   7.1642273265774115e-01   7.1843727395913015e-01   7.0827180953843782e-01   7.1032948103857119e-01   7.0001609597770464e-01   7.0211651600490677e-01   6.9379981146632075e-01   9.0227215546708017e-01   8.9796034780772449e-01   8.9858798302084963e-01   8.9350452550134962e-01   8.9418016152645396e-01   8.8890342818428281e-01   8.8962712259898691e-01   8.7863213657730477e-01   8.8459167659793858e-01   8.7376786741955947e-01   8.7973956678443677e-01   8.6872548929012283e-01   8.6960634634471612e-01   8.6350707247813074e-01   8.6444034767688538e-01   8.5861112562177955e-01   8.5959041477448472e-01   8.5261820682778222e-01   8.5365684398092201e-01   8.4694735612140382e-01   8.4803807848509394e-01   8.4112615094173881e-01   8.4226831083969633e-01   8.3515817550515392e-01   8.3635100504001747e-01   8.2904425960341399e-01   8.3028684363621363e-01   8.2320153647267991e-01   8.2408602811632270e-01   8.1681205411682789e-01   8.1815165616156293e-01   8.1029510523590487e-01   8.1168197789262597e-01   8.0364988317680397e-01   8.0470969384008839e-01   7.9687938663253732e-01   7.9835902875240061e-01   7.8998635927730654e-01   7.9151169707601521e-01   7.8297331472311671e-01   7.8454397801901343e-01   7.7584241650969710e-01   7.7708033329941084e-01   7.6859554214396375e-01   7.6987934187514762e-01   7.6085948506471046e-01   7.6256398964433270e-01   7.5338625155498939e-01   7.5513544916430042e-01   7.4580083215549720e-01   7.4759467860563944e-01   7.3810438130252154e-01   7.3994273842791991e-01   7.3029813509746178e-01   7.3218079439072858e-01   7.2238341299259501e-01   7.2431012029851871e-01   7.1435773398335778e-01   7.1632798573768841e-01   7.0623100351053902e-01   7.0824471028292368e-01   6.9799977487423726e-01   7.0005658622249245e-01   6.8974136413317866e-01   6.9176514490693752e-01   6.8129546804545371e-01   6.8344675889581474e-01   6.7275699293107205e-01   6.7494127073746402e-01   6.6405693987592396e-01   6.6628275830172390e-01   6.5532232948720293e-01   6.5758970408596917e-01   6.4649020487788500e-01   6.4879889059087947e-01   6.3991126686247890e-01   8.9416157644889083e-01   8.8988399964970410e-01   8.9047213470832698e-01   8.8545635615165830e-01   8.8609384305896366e-01   8.8133491893940263e-01   8.8156344280397370e-01   8.7659985799220708e-01   8.7733552981773910e-01   8.7127283551558032e-01   8.7205913741537056e-01   8.6666634285173383e-01   8.6750302493270337e-01   8.6146362357930295e-01   8.6235190720419763e-01   8.5610412901997046e-01   8.5704435023803138e-01   8.5012062265920540e-01   8.5111296955841165e-01   8.4445402901407796e-01   8.4549793361243830e-01   8.3863864573663816e-01   8.3973363910049525e-01   8.3267789792308600e-01   8.3382337629045244e-01   8.2657278720433103e-01   8.2776799839506943e-01   8.2033292657686807e-01   8.2157709935876777e-01   8.1436151214655328e-01   8.1565400484135131e-01   8.0785696061168144e-01   8.0919686990764483e-01   8.0122549702570189e-01   8.0261218839764148e-01   7.9447013420562118e-01   7.9552323669006064e-01   7.8721413737951884e-01   7.8869253191845590e-01   7.8021932290091511e-01   7.8212250763271052e-01   7.7310818315015428e-01   7.7505565148442312e-01   7.6625921362248151e-01   7.6787365184526812e-01   7.5891877808051778e-01   7.6057807913649633e-01   7.5109213541982045e-01   7.5279544598066650e-01   7.4352956976711337e-01   7.4527782217028660e-01   7.3585668201020038e-01   7.3764966075645610e-01   7.2807462591097039e-01   7.2991215202586701e-01   7.2018461174241455e-01   7.2206645330483066e-01   7.1218443398262987e-01   7.1411013224521114e-01   7.0408320547405567e-01   7.0605267258815341e-01   6.9587783910062573e-01   6.9789074697786968e-01   6.8764552335974993e-01   6.8970174776153537e-01   6.7922706212165462e-01   6.8133410560530216e-01   6.7071416499991643e-01   6.7285572869604116e-01   6.6204083888468235e-01   6.6428788363429747e-01   6.5333327802083108e-01   6.5555859106552217e-01   6.4452841284372120e-01   6.4679542254980049e-01   6.3562717206435526e-01   6.3793562939554105e-01   6.2663054546888430e-01   6.2898017983854659e-01   6.1753955093339541e-01   6.1993007819617896e-01   6.0835908578846098e-01   6.1078635789552016e-01   6.0155071257355075e-01   8.9567933694607293e-01   8.9611943421910956e-01   8.9155180695163116e-01   8.9204255532402033e-01   8.8727332204136045e-01   8.8781449958948444e-01   8.8284240658244295e-01   8.8343374964140164e-01   8.7825790050255370e-01   8.7889920215162931e-01   8.7397391181612605e-01   8.7466458745127695e-01   8.6864159250986006e-01   8.6938306065087179e-01   8.6403114777047185e-01   8.6482263502424095e-01   8.5882649928080090e-01   8.5966905592046527e-01   8.5346747969438030e-01   8.5436134337230563e-01   8.4748690292339002e-01   8.4883594404662022e-01   8.4182492863612490e-01   8.4282154858059422e-01   8.3601603604580343e-01   8.3706341850935473e-01   8.3006359276119546e-01   8.3116125672843399e-01   8.2396865590766677e-01   8.2511598121901875e-01   8.1774029316927044e-01   8.1893663629260316e-01   8.1178172641071766e-01   8.1302649440627872e-01   8.0529142332444148e-01   8.0620422313319440e-01   7.9867554703844446e-01   7.9963449686640764e-01   7.9193712648802994e-01   7.9332289064099415e-01   7.8507877723233344e-01   7.8651056447774603e-01   7.7810279662160364e-01   7.7920344703054689e-01   7.7101116437936423e-01   7.7253403579170143e-01   7.6380561352714360e-01   7.6537366326102740e-01   7.5648753105852362e-01   7.5810062381096810e-01   7.4868345126990832e-01   7.5041450231231277e-01   7.4114527072761427e-01   7.4284763362470785e-01   7.3349728860115326e-01   7.3524462663623480e-01   7.2574072583507787e-01   7.2753287746522310e-01   7.1787673737987345e-01   7.1971347906870364e-01   7.0990351137195606e-01   7.1186235121696906e-01   7.0182910812806876e-01   7.0383134084349575e-01   6.9372726422150177e-01   6.9569620772540997e-01   6.8544584792322938e-01   6.8738226206234421e-01   6.7698806340264384e-01   6.7904337319931063e-01   6.6857018732731344e-01   6.7066887472037717e-01   6.5998844083307739e-01   6.6212930226106570e-01   6.5124576330464068e-01   6.5342871871489150e-01   6.4246948924684721e-01   6.4469451393051114e-01   6.3359705769176200e-01   6.3586390499748502e-01   6.2462941461482768e-01   6.2693783250715307e-01   6.1556758682926260e-01   6.1791728648077970e-01   6.0641322118302676e-01   6.0880715927038098e-01   5.9716617184106047e-01   5.9959756517806628e-01   5.9029992108145579e-01   8.9292445813209698e-01   8.9331536578629067e-01   8.8879793314074540e-01   8.8923973868042094e-01   8.8451834501908855e-01   8.8501102973575119e-01   8.8008453143413912e-01   8.8062794837579916e-01   8.7549589198641886e-01   8.7611487204940086e-01   8.7076933351583008e-01   8.7141383143404316e-01   8.6630841208832432e-01   8.6700267145088294e-01   8.6125633391232603e-01   8.6200125325269528e-01   8.5605067025009596e-01   8.5684645942432291e-01   8.5069281027745558e-01   8.5153957877730058e-01   8.4474200050861448e-01   8.4601754328619017e-01   8.3946350041617579e-01   8.4041226026884230e-01   8.3325816413681286e-01   8.3466189147737657e-01   8.2771580532395450e-01   8.2876523226017018e-01   8.2125877667739577e-01   8.2273408550055538e-01   8.1501689457967152e-01   8.1616499239425289e-01   8.0869345787511460e-01   8.0986733221209906e-01   8.0259873144621741e-01   8.0384307089958096e-01   7.9600036621192327e-01   7.9728746144640783e-01   7.8928073038522761e-01   7.9061412184672208e-01   7.8244238525209853e-01   7.8382203981830423e-01   7.7548748039383264e-01   7.7691319523897395e-01   7.6841791009905303e-01   7.6989054288114356e-01   7.6123529868889728e-01   7.6275667101986233e-01   7.5363972973347204e-01   7.5550764856609443e-01   7.4623488672050986e-01   7.4784626876141969e-01   7.3864806340569389e-01   7.4037872406783090e-01   7.3102637787238400e-01   7.3280246197410692e-01   7.2329704432921971e-01   7.2504358907454947e-01   7.1553514983572164e-01   7.1732655392634925e-01   7.0759287750785316e-01   7.0942892923214418e-01   6.9954591664398402e-01   7.0142635286329991e-01   6.9139549617639273e-01   6.9332002548301519e-01   6.8314283582976021e-01   6.8511114596038070e-01   6.7478916788389909e-01   6.7680094564847104e-01   6.6632562835353593e-01   6.6839057754872166e-01   6.5777320901829317e-01   6.5987105716413774e-01   6.4912311645266829e-01   6.5126362260120874e-01   6.4031385884538072e-01   6.4249659293502182e-01   6.3147154660867000e-01   6.3369647301245424e-01   6.2253423891557180e-01   6.2480110315785686e-01   6.1350291970040483e-01   6.1581145191776843e-01   6.0437927642140943e-01   6.0673241130857225e-01   5.9516309713916715e-01   5.9755411294024963e-01   5.8585617025805437e-01   5.8828795136453349e-01   5.7645966754630762e-01   5.7893190187588373e-01   5.6948717664938453e-01   8.9002293965905588e-01   8.9036443465329995e-01   8.8589616838017604e-01   8.8628846166110598e-01   8.8161503112431794e-01   8.8205836374064372e-01   8.7717868619663542e-01   8.7767308334093241e-01   8.7258690078756374e-01   8.7313229186435515e-01   8.6783999897273034e-01   8.6843628663801553e-01   8.6339268597784846e-01   8.6403903406197147e-01   8.5833943844734584e-01   8.5903661050945845e-01   8.5313431102979309e-01   8.5342708408599599e-01   8.4777903029793300e-01   8.4857797165645499e-01   8.4221083938262653e-01   8.4306083737928117e-01   8.3656163434021913e-01   8.3746225560755072e-01   8.3076561600216570e-01   8.3171675040487170e-01   8.2483403387056331e-01   8.2583501155004968e-01   8.1836364000476192e-01   8.1981683044702247e-01   8.1216343252896483e-01   8.1326301921716004e-01   8.0623561775077046e-01   8.0738368955805906e-01   7.9938564045424898e-01   8.0097066267669415e-01   7.9319575890250538e-01   7.9443905418234728e-01   7.8649682065368853e-01   7.8778697939636222e-01   7.7968029713546871e-01   7.8101694103842634e-01   7.7274822823869493e-01   7.7413105412536598e-01   7.6570235192660097e-01   7.6713108164404398e-01   7.5854427515141043e-01   7.6001862684374799e-01   7.5097829743553823e-01   7.5279508148952479e-01   7.4360000486371114e-01   7.4516508784450330e-01   7.3611422450976294e-01   7.3772431678121841e-01   7.2852026896896938e-01   7.3017568385329368e-01   7.2074417718982953e-01   7.2244175025551371e-01   7.1293383494935414e-01   7.1467954322531102e-01   7.0502106968616196e-01   7.0681172028696659e-01   6.9700402433176845e-01   6.9883936928959500e-01   6.8895965921611557e-01   6.9076359563364598e-01   6.8073704943500246e-01   6.8266102936024775e-01   6.7241366850085227e-01   6.7438145837041963e-01   6.6398291710880186e-01   6.6600197613529921e-01   6.5545904519478526e-01   6.5751361140225506e-01   6.4682129551951517e-01   6.4891878296908911e-01   6.3806587327087116e-01   6.4024602451416102e-01   6.2925104529701048e-01   6.3143766753142405e-01   6.2034925559239973e-01   6.2257426609853483e-01   6.1134975528303492e-01   6.1361680178578659e-01   6.0225428417858340e-01   6.0456627522731576e-01   5.9307038868302953e-01   5.9542064725779742e-01   5.8379593003992658e-01   5.8618734997722122e-01   5.7443216054541202e-01   5.7686440622815027e-01   5.6498028886639573e-01   5.6745303728613705e-01   5.5543999690177637e-01   5.5795285917367110e-01   5.4836866634818793e-01   8.8697261518077719e-01   8.8284426362551172e-01   8.8318692206583149e-01   8.7856119481298300e-01   8.7895480091050815e-01   8.7412269166854495e-01   8.7456746964738430e-01   8.6952886266084795e-01   8.7005582842193385e-01   8.6480209485231074e-01   8.6532756596518012e-01   8.6033144177877563e-01   8.6092889804791084e-01   8.5527902911910225e-01   8.5549329359682547e-01   8.4963529594706932e-01   8.5077593688994968e-01   8.4466168506895578e-01   8.4547603077678446e-01   8.3916431971927063e-01   8.3957207772641296e-01   8.3352370935671660e-01   8.3437577337702229e-01   8.2733613850330856e-01   8.2864071195267364e-01   8.2181961137908444e-01   8.2277190855457294e-01   8.1576664135127563e-01   8.1676844231394941e-01   8.0958263440107991e-01   8.1063347228657356e-01   8.0326607008431461e-01   8.0436542519642884e-01   7.9682983846399968e-01   7.9797717978342264e-01   7.9027215493973368e-01   7.9146698132665061e-01   7.8359568558050929e-01   7.8483756360247325e-01   7.7680271320792904e-01   7.7809129663990928e-01   7.6950646851398929e-01   7.7084106258793850e-01   7.6248863478294748e-01   7.6386925632785518e-01   7.5537133905022169e-01   7.5678577876390085e-01   7.4811984974623602e-01   7.4959201114570373e-01   7.40852735171495