<?xml version="1.0"?>
<VTKFile type="UnstructuredGrid"  version="0.1"  >
<UnstructuredGrid>
<Piece  NumberOfPoints="8560" NumberOfCells="16679">
<Points>
<DataArray  type="Float64"  NumberOfComponents="3"  format="ascii">0.35546875 0.49609375 0  0.35546875 0.5 0  0.359375 0.5 0  0.3515625 0.5 0  0.35546875 0.50390625 0  0.3515625 0.50390625 0  0.359375 0.50390625 0  0.36328125 0.50390625 0  0.35546875 0.5078125 0  0.3515625 0.5078125 0  0.359375 0.5078125 0  0.36328125 0.5078125 0  0.3671875 0.50390625 0  0.3671875 0.5078125 0  0.37109375 0.5078125 0  0.34765625 0.5078125 0  0.3515625 0.51171875 0  0.34765625 0.51171875 0  0.35546875 0.51171875 0  0.359375 0.51171875 0  0.36328125 0.51171875 0  0.3671875 0.51171875 0  0.37109375 0.51171875 0  0.375 0.5078125 0  0.375 0.51171875 0  0.37890625 0.51171875 0  0.3515625 0.515625 0  0.34765625 0.515625 0  0.35546875 0.515625 0  0.359375 0.515625 0  0.36328125 0.515625 0  0.3671875 0.515625 0  0.37109375 0.515625 0  0.375 0.515625 0  0.37890625 0.515625 0  0.3828125 0.515625 0  0.3515625 0.51953125 0  0.34765625 0.51953125 0  0.35546875 0.51953125 0  0.359375 0.51953125 0  0.36328125 0.51953125 0  0.3671875 0.51953125 0  0.37109375 0.51953125 0  0.375 0.51953125 0  0.37890625 0.51953125 0  0.3828125 0.51953125 0  0.38671875 0.515625 0  0.38671875 0.51953125 0  0.390625 0.515625 0  0.390625 0.51953125 0  0.39453125 0.51953125 0  0.56640625 0.515625 0  0.5703125 0.515625 0  0.5703125 0.51953125 0  0.56640625 0.51953125 0  0.57421875 0.515625 0  0.57421875 0.51953125 0  0.578125 0.515625 0  0.578125 0.51953125 0  0.58203125 0.51953125 0  0.3515625 0.5234375 0  0.34765625 0.5234375 0  0.35546875 0.5234375 0  0.359375 0.5234375 0  0.36328125 0.5234375 0  0.3671875 0.5234375 0  0.37109375 0.5234375 0  0.375 0.5234375 0  0.37890625 0.5234375 0  0.3828125 0.5234375 0  0.38671875 0.5234375 0  0.390625 0.5234375 0  0.39453125 0.5234375 0  0.3984375 0.5234375 0  0.55859375 0.51953125 0  0.5625 0.51953125 0  0.5625 0.5234375 0  0.55859375 0.5234375 0  0.56640625 0.5234375 0  0.5703125 0.5234375 0  0.57421875 0.5234375 0  0.578125 0.5234375 0  0.58203125 0.5234375 0  0.5859375 0.51953125 0  0.5859375 0.5234375 0  0.58984375 0.51953125 0  0.58984375 0.5234375 0  0.59375 0.5234375 0  0.3515625 0.52734375 0  0.34765625 0.52734375 0  0.35546875 0.52734375 0  0.359375 0.52734375 0  0.36328125 0.52734375 0  0.3671875 0.52734375 0  0.37109375 0.52734375 0  0.375 0.52734375 0  0.37890625 0.52734375 0  0.3828125 0.52734375 0  0.38671875 0.52734375 0  0.390625 0.52734375 0  0.39453125 0.52734375 0  0.3984375 0.52734375 0  0.40234375 0.52734375 0  0.5625 0.52734375 0  0.55859375 0.52734375 0  0.56640625 0.52734375 0  0.5703125 0.52734375 0  0.57421875 0.52734375 0  0.578125 0.52734375 0  0.58203125 0.52734375 0  0.5859375 0.52734375 0  0.58984375 0.52734375 0  0.59375 0.52734375 0  0.59765625 0.5234375 0  0.59765625 0.52734375 0  0.6015625 0.5234375 0  0.6015625 0.52734375 0  0.60546875 0.5234375 0  0.60546875 0.52734375 0  0.609375 0.52734375 0  0.3515625 0.53125 0  0.34765625 0.53125 0  0.35546875 0.53125 0  0.359375 0.53125 0  0.36328125 0.53125 0  0.3671875 0.53125 0  0.37109375 0.53125 0  0.375 0.53125 0  0.37890625 0.53125 0  0.3828125 0.53125 0  0.38671875 0.53125 0  0.390625 0.53125 0  0.39453125 0.53125 0  0.3984375 0.53125 0  0.40234375 0.53125 0  0.40625 0.52734375 0  0.40625 0.53125 0  0.41015625 0.52734375 0  0.41015625 0.53125 0  0.4140625 0.53125 0  0.5 0.52734375 0  0.50390625 0.52734375 0  0.50390625 0.53125 0  0.5 0.53125 0  0.5078125 0.53125 0  0.5625 0.53125 0  0.55859375 0.53125 0  0.56640625 0.53125 0  0.5703125 0.53125 0  0.57421875 0.53125 0  0.578125 0.53125 0  0.58203125 0.53125 0  0.5859375 0.53125 0  0.58984375 0.53125 0  0.59375 0.53125 0  0.59765625 0.53125 0  0.6015625 0.53125 0  0.60546875 0.53125 0  0.609375 0.53125 0  0.61328125 0.53125 0  0.3515625 0.53515625 0  0.35546875 0.53515625 0  0.359375 0.53515625 0  0.36328125 0.53515625 0  0.3671875 0.53515625 0  0.37109375 0.53515625 0  0.375 0.53515625 0  0.37890625 0.53515625 0  0.3828125 0.53515625 0  0.38671875 0.53515625 0  0.390625 0.53515625 0  0.39453125 0.53515625 0  0.3984375 0.53515625 0  0.40234375 0.53515625 0  0.40625 0.53515625 0  0.41015625 0.53515625 0  0.4140625 0.53515625 0  0.41796875 0.53515625 0  0.484375 0.53125 0  0.48828125 0.53125 0  0.48828125 0.53515625 0  0.484375 0.53515625 0  0.4921875 0.53515625 0  0.49609375 0.53125 0  0.5 0.53515625 0  0.49609375 0.53515625 0  0.50390625 0.53515625 0  0.5078125 0.53515625 0  0.51171875 0.53125 0  0.51171875 0.53515625 0  0.515625 0.53125 0  0.515625 0.53515625 0  0.51953125 0.53125 0  0.51953125 0.53515625 0  0.5234375 0.53125 0  0.5234375 0.53515625 0  0.52734375 0.53125 0  0.52734375 0.53515625 0  0.53125 0.53125 0  0.53125 0.53515625 0  0.53515625 0.53125 0  0.53515625 0.53515625 0  0.5390625 0.53125 0  0.5390625 0.53515625 0  0.54296875 0.53125 0  0.54296875 0.53515625 0  0.546875 0.53125 0  0.546875 0.53515625 0  0.55078125 0.53125 0  0.55078125 0.53515625 0  0.5546875 0.53125 0  0.5546875 0.53515625 0  0.55859375 0.53515625 0  0.5625 0.53515625 0  0.56640625 0.53515625 0  0.5703125 0.53515625 0  0.57421875 0.53515625 0  0.578125 0.53515625 0  0.58203125 0.53515625 0  0.5859375 0.53515625 0  0.58984375 0.53515625 0  0.59375 0.53515625 0  0.59765625 0.53515625 0  0.6015625 0.53515625 0  0.60546875 0.53515625 0  0.609375 0.53515625 0  0.61328125 0.53515625 0  0.6171875 0.53515625 0  0.35546875 0.5390625 0  0.3515625 0.5390625 0  0.359375 0.5390625 0  0.36328125 0.5390625 0  0.3671875 0.5390625 0  0.37109375 0.5390625 0  0.375 0.5390625 0  0.37890625 0.5390625 0  0.3828125 0.5390625 0  0.38671875 0.5390625 0  0.390625 0.5390625 0  0.39453125 0.5390625 0  0.3984375 0.5390625 0  0.40234375 0.5390625 0  0.40625 0.5390625 0  0.41015625 0.5390625 0  0.4140625 0.5390625 0  0.41796875 0.5390625 0  0.48046875 0.53515625 0  0.484375 0.5390625 0  0.48046875 0.5390625 0  0.48828125 0.5390625 0  0.4921875 0.5390625 0  0.49609375 0.5390625 0  0.5 0.5390625 0  0.50390625 0.5390625 0  0.5078125 0.5390625 0  0.51171875 0.5390625 0  0.515625 0.5390625 0  0.51953125 0.5390625 0  0.5234375 0.5390625 0  0.52734375 0.5390625 0  0.53125 0.5390625 0  0.53515625 0.5390625 0  0.5390625 0.5390625 0  0.54296875 0.5390625 0  0.546875 0.5390625 0  0.55078125 0.5390625 0  0.5546875 0.5390625 0  0.55859375 0.5390625 0  0.5625 0.5390625 0  0.56640625 0.5390625 0  0.5703125 0.5390625 0  0.57421875 0.5390625 0  0.578125 0.5390625 0  0.58203125 0.5390625 0  0.5859375 0.5390625 0  0.58984375 0.5390625 0  0.59375 0.5390625 0  0.59765625 0.5390625 0  0.6015625 0.5390625 0  0.60546875 0.5390625 0  0.609375 0.5390625 0  0.61328125 0.5390625 0  0.6171875 0.5390625 0  0.62109375 0.5390625 0  0.34765625 0.5390625 0  0.3515625 0.54296875 0  0.34765625 0.54296875 0  0.35546875 0.54296875 0  0.359375 0.54296875 0  0.36328125 0.54296875 0  0.3671875 0.54296875 0  0.37109375 0.54296875 0  0.375 0.54296875 0  0.37890625 0.54296875 0  0.3828125 0.54296875 0  0.38671875 0.54296875 0  0.390625 0.54296875 0  0.39453125 0.54296875 0  0.3984375 0.54296875 0  0.40234375 0.54296875 0  0.40625 0.54296875 0  0.41015625 0.54296875 0  0.4140625 0.54296875 0  0.41796875 0.54296875 0  0.421875 0.54296875 0  0.484375 0.54296875 0  0.48046875 0.54296875 0  0.48828125 0.54296875 0  0.4921875 0.54296875 0  0.49609375 0.54296875 0  0.5 0.54296875 0  0.50390625 0.54296875 0  0.5078125 0.54296875 0  0.51171875 0.54296875 0  0.515625 0.54296875 0  0.51953125 0.54296875 0  0.5234375 0.54296875 0  0.52734375 0.54296875 0  0.53125 0.54296875 0  0.53515625 0.54296875 0  0.5390625 0.54296875 0  0.54296875 0.54296875 0  0.546875 0.54296875 0  0.55078125 0.54296875 0  0.5546875 0.54296875 0  0.55859375 0.54296875 0  0.5625 0.54296875 0  0.56640625 0.54296875 0  0.5703125 0.54296875 0  0.57421875 0.54296875 0  0.578125 0.54296875 0  0.58203125 0.54296875 0  0.5859375 0.54296875 0  0.58984375 0.54296875 0  0.59375 0.54296875 0  0.59765625 0.54296875 0  0.6015625 0.54296875 0  0.60546875 0.54296875 0  0.609375 0.54296875 0  0.61328125 0.54296875 0  0.6171875 0.54296875 0  0.62109375 0.54296875 0  0.625 0.54296875 0  0.3515625 0.546875 0  0.34765625 0.546875 0  0.35546875 0.546875 0  0.359375 0.546875 0  0.36328125 0.546875 0  0.3671875 0.546875 0  0.37109375 0.546875 0  0.375 0.546875 0  0.37890625 0.546875 0  0.3828125 0.546875 0  0.38671875 0.546875 0  0.390625 0.546875 0  0.39453125 0.546875 0  0.3984375 0.546875 0  0.40234375 0.546875 0  0.40625 0.546875 0  0.41015625 0.546875 0  0.4140625 0.546875 0  0.41796875 0.546875 0  0.421875 0.546875 0  0.42578125 0.546875 0  0.484375 0.546875 0  0.48046875 0.546875 0  0.48828125 0.546875 0  0.4921875 0.546875 0  0.49609375 0.546875 0  0.5 0.546875 0  0.50390625 0.546875 0  0.5078125 0.546875 0  0.51171875 0.546875 0  0.515625 0.546875 0  0.51953125 0.546875 0  0.5234375 0.546875 0  0.52734375 0.546875 0  0.53125 0.546875 0  0.53515625 0.546875 0  0.5390625 0.546875 0  0.54296875 0.546875 0  0.546875 0.546875 0  0.55078125 0.546875 0  0.5546875 0.546875 0  0.55859375 0.546875 0  0.5625 0.546875 0  0.56640625 0.546875 0  0.5703125 0.546875 0  0.57421875 0.546875 0  0.578125 0.546875 0  0.58203125 0.546875 0  0.5859375 0.546875 0  0.58984375 0.546875 0  0.59375 0.546875 0  0.59765625 0.546875 0  0.6015625 0.546875 0  0.60546875 0.546875 0  0.609375 0.546875 0  0.61328125 0.546875 0  0.6171875 0.546875 0  0.62109375 0.546875 0  0.625 0.546875 0  0.3515625 0.55078125 0  0.34765625 0.55078125 0  0.35546875 0.55078125 0  0.359375 0.55078125 0  0.36328125 0.55078125 0  0.3671875 0.55078125 0  0.37109375 0.55078125 0  0.375 0.55078125 0  0.37890625 0.55078125 0  0.3828125 0.55078125 0  0.38671875 0.55078125 0  0.390625 0.55078125 0  0.39453125 0.55078125 0  0.3984375 0.55078125 0  0.40234375 0.55078125 0  0.40625 0.55078125 0  0.41015625 0.55078125 0  0.4140625 0.55078125 0  0.41796875 0.55078125 0  0.421875 0.55078125 0  0.42578125 0.55078125 0  0.4296875 0.55078125 0  0.47265625 0.
[...]
<CellData  Scalars="f_11"> 
<DataArray  type="Float64"  Name="f_11"  format="ascii">8.9778812413816234e-01   8.9442425689144633e-01   8.9268821503377938e-01   8.9945691542883099e-01   8.9777877609283774e-01   9.0679120506671329e-01   8.9431370370698993e-01   8.9252779966156792e-01   9.0337574989893088e-01   9.0163990977994757e-01   9.0851745476437218e-01   9.0662297174824169e-01   9.1324785726063407e-01   9.1162705145443879e-01   9.1227515424844308e-01   8.9276027043844375e-01   8.9086590354569084e-01   8.9798532669039655e-01   8.9614594427850969e-01   9.0312859599738804e-01   9.0134519432071702e-01   9.0828065561610227e-01   9.0633670152599910e-01   9.1301953257537460e-01   9.1135135791850952e-01   9.1361876436318712e-01   9.1201454054114728e-01   9.1801272395869582e-01   9.1646854704020198e-01   9.2075334407107168e-01   8.9236674569375762e-01   8.9042781100029733e-01   8.9759753680901444e-01   8.9571270263904534e-01   9.0274828509815586e-01   9.0091883491223634e-01   9.0769171554969741e-01   9.0588674709997208e-01   9.0869980668670447e-01   9.1094424409918329e-01   9.1327340034334403e-01   9.1162203181376544e-01   9.1767846582525325e-01   9.1608753986343006e-01   9.2589572830169720e-01   9.2436051840667954e-01   9.2849582820154908e-01   8.9184493896005435e-01   8.8986271677954443e-01   8.9708112378720428e-01   8.9515229236835026e-01   9.0223899569343291e-01   9.0036489603662073e-01   9.0719088984789964e-01   9.0534073263684767e-01   9.1216917571761269e-01   9.1040910546042275e-01   9.1279889366636580e-01   9.1110117372860810e-01   9.1721680045783394e-01   9.1558078439242263e-01   9.2543934060285271e-01   9.2385883994917195e-01   9.2952751179582860e-01   9.2800617994457291e-01   9.3532606534948626e-01   9.3200517763518498e-01   9.3909796320500449e-01   9.3768252437713406e-01   9.4135951699281006e-01   9.7580001800816796e-01   9.7646702611642133e-01   9.7285467668635450e-01   9.7357875547590222e-01   9.6998079271481263e-01   9.7075793905143726e-01   9.6785424111801788e-01   8.9119832473113336e-01   8.8917379087531090e-01   8.9643965357763944e-01   8.9446790570565116e-01   9.0160425830050073e-01   8.9968662532227694e-01   9.0653241043138311e-01   9.0466998043981950e-01   9.1155358978310164e-01   9.0954394265792082e-01   9.1615608007592653e-01   9.1440985461849744e-01   9.2059193067871703e-01   9.1890549195407789e-01   9.2054620539997567e-01   9.2323383622721655e-01   9.2896048935582720e-01   9.2311154342540380e-01   9.3295010784224297e-01   9.3139054084030226e-01   9.3853606841530590e-01   9.3707868560119334e-01   9.4216822926217347e-01   9.4076021003024024e-01   9.4430134692718704e-01   9.8021548372736333e-01   9.8081242411006730e-01   9.7770372189028310e-01   9.7827151234470422e-01   9.7511478624059889e-01   9.7572509248506067e-01   9.7216266907865634e-01   9.7284039966388147e-01   9.6933433153031645e-01   9.7002885705154440e-01   9.6639839399376093e-01   9.6713448250636036e-01   9.6341547053335674e-01   9.6418484149024886e-01   9.6034019505120627e-01   9.6114548725328230e-01   9.5507942512052868e-01   8.9042955938143209e-01   8.8836348832172851e-01   8.9567579788878238e-01   8.9366197859750240e-01   9.0084663781941421e-01   8.9888630494560662e-01   9.0578240039934843e-01   9.0387668850063541e-01   9.0686521296903000e-01   9.0875916296492132e-01   9.1542754285735461e-01   9.1358817925337710e-01   9.1987585618083512e-01   9.1814413056494049e-01   9.2415749352978904e-01   9.2248595036099690e-01   9.2397587561728378e-01   9.2236801579152361e-01   9.3222226622258531e-01   9.2637606866290212e-01   9.3785397229654888e-01   9.3635426361863561e-01   9.4148956981233556e-01   9.4004071334190908e-01   9.4498625458065388e-01   9.4358133776076203e-01   9.4902219224564188e-01   9.7930431902419790e-01   9.7976866057218281e-01   9.7684677820181176e-01   9.7735647346658716e-01   9.7405444959132714e-01   9.7462528383994740e-01   9.7135457775327039e-01   9.7195452466043541e-01   9.6855164673429117e-01   9.6919275509668934e-01   9.6563723656192435e-01   9.6631838181453977e-01   9.6267225613000229e-01   9.6339190465986113e-01   9.5671515140555141e-01   9.5748964483255083e-01   9.5347530308868400e-01   9.5429022132520136e-01   9.5014129473574505e-01   9.5098885720464033e-01   9.4670539519622032e-01   9.4758941769141869e-01   9.4289660237132200e-01   9.4407726795470504e-01   9.4020094376429719e-01   8.8954067423451944e-01   8.8743369628899693e-01   8.9479204144941082e-01   8.9273614929557021e-01   8.9996778869780647e-01   8.9796537409103028e-01   9.0491050352904046e-01   9.0296193436302286e-01   9.0990205709043748e-01   9.0411716261078279e-01   9.1452961405642130e-01   9.1269061810511576e-01   9.1903666536426598e-01   9.1725949192670109e-01   9.2333199674428146e-01   9.2161443554544098e-01   9.2317404081585963e-01   9.2151969982341031e-01   9.3142161437975568e-01   9.2554210706289686e-01   9.3705068724096219e-01   9.3550782282111045e-01   9.4069012620652981e-01   9.3919980745799392e-01   9.4418379839507560e-01   9.4274122856521603e-01   9.4960960996037302e-01   9.4623887212972102e-01   9.5280827540609581e-01   9.5145706443156419e-01   9.5595317016959303e-01   9.5457232755160781e-01   9.5763699679546177e-01   9.9285382246796683e-01   9.9240740002288563e-01   9.9633118920760433e-01   9.7827208134431853e-01   9.7867665156777295e-01   9.7563849265720770e-01   9.7630360343741562e-01   9.7306193623523796e-01   9.7358034458684217e-01   9.7038086259901080e-01   9.7093070259926306e-01   9.6763452094941971e-01   9.6822237795346699e-01   9.6474284833177781e-01   9.6537240631028698e-01   9.5895110003087070e-01   9.5963607330171485e-01   9.5582755309787104e-01   9.5655180684345020e-01   9.5260100191934827e-01   9.5336384118009199e-01   9.4926904725931416e-01   9.5007007381807351e-01   9.4583852827284043e-01   9.4667753440414393e-01   9.4203825547920805e-01   9.4291577754271472e-01   9.3838417586188916e-01   9.3930035249150057e-01   9.3554220153039547e-01   8.8853295130541632e-01   8.9386620882928569e-01   8.9169122525601618e-01   8.9896838782957644e-01   8.9692428987281159e-01   9.0391698276261956e-01   9.0192584861559533e-01   9.0891697464485155e-01   9.0682258333661392e-01   9.1355104883075322e-01   9.1167025181358330e-01   9.1807307140266048e-01   9.1625008625905502e-01   9.2238149094797395e-01   9.2061729845114948e-01   9.2224644167886638e-01   9.2054460732391408e-01   9.2622230236422076e-01   9.2458100044794922e-01   9.3612396468679704e-01   9.3274028088250693e-01   9.3976801348203876e-01   9.3823503377633610e-01   9.4326091242027255e-01   9.4177797987078382e-01   9.4867913070281973e-01   9.4518071061780584e-01   9.5186827171748323e-01   9.5047998547753387e-01   9.5499980688567776e-01   9.5358302166150788e-01   9.5795271478606658e-01   9.5663198383656600e-01   9.5950696103214128e-01   9.9479922012434951e-01   9.9458152329923966e-01   9.9467819614699937e-01   9.9511235300340928e-01   9.9550419566775361e-01   9.9521078281629172e-01   9.9564361868726037e-01   9.9510496065864995e-01   9.9559722743782753e-01   9.9478105312292064e-01   9.9536428968363799e-01   9.9533407818523334e-01   9.9494531711795464e-01   9.9466486289053146e-01   9.9434203882334804e-01   9.9381354105218811e-01   9.9355726197409422e-01   9.9278458117765600e-01   9.9259499946531637e-01   9.9158349626988751e-01   9.9146033430621294e-01   9.9021680782004196e-01   9.8407960019540375e-01   9.8869204589356874e-01   9.8869895292814136e-01   9.8785041838125476e-01   9.8789154096936993e-01   9.8611797112600830e-01   9.8624671659382568e-01   9.8426598955366296e-01   9.8444956572958375e-01   9.8159371623225555e-01   9.8193142474815454e-01   9.7937821916015344e-01   9.7967437538376601e-01   9.7710397475451183e-01   9.7745095474432386e-01   9.7447991319131422e-01   9.7487751077062357e-01   9.7194713865805682e-01   9.7239220525799042e-01   9.6930263314307719e-01   9.6979351186110385e-01   9.6653890740425752e-01   9.6708655055104842e-01   9.6371625310494391e-01   9.6429441953995298e-01   9.5791080129594697e-01   9.5854369948499785e-01   9.5480245169477895e-01   9.5547647465513763e-01   9.5158704512615933e-01   9.5230139801266411e-01   9.4827214695092132e-01   9.4902627804797368e-01   9.4473420330867874e-01   9.4552784913840426e-01   9.4105110139185411e-01   9.4188454352583240e-01   9.3737211455221914e-01   9.3827185024163173e-01   9.3360079804372886e-01   9.3451448519389524e-01   9.3032773864585472e-01   8.9274257375411759e-01   8.9060569169950032e-01   8.9784813848917722e-01   8.9576248784588342e-01   9.0280115376391545e-01   9.0076753938541532e-01   9.0780803047150704e-01   9.0566916426543986e-01   9.1245009871312988e-01   9.1052434631264545e-01   9.1698279712236708e-01   9.1506367398430988e-01   9.2130312407301462e-01   9.1949160611460679e-01   9.2118931828703021e-01   9.1943886944749020e-01   9.2517831895837210e-01   9.2348847014089497e-01   9.2899813894886696e-01   9.3163284719089545e-01   9.3265506105486018e-01   9.3108128167856763e-01   9.4221313565997444e-01   9.3463324924853053e-01   9.4559346728031657e-01   9.4408206539933748e-01   9.5080548820149469e-01   9.4937934512885291e-01   9.5385999147258005e-01   9.5247036267638185e-01   9.5685966162949243e-01   9.5550366887650062e-01   9.5972945359652295e-01   9.5835984017248843e-01   9.9303815373806958e-01   9.9222879024336186e-01   9.9374829699454992e-01   9.9297574677493183e-01   9.9421583439457073e-01   9.9357324472044151e-01   9.9412921833688017e-01   9.9339497490052808e-01   9.9438286070798210e-01   9.9370329244512312e-01   9.9445574030427519e-01   9.9383354971018434e-01   9.9434618934222274e-01   9.9378371753623840e-01   9.9405386427321085e-01   9.9355300199106489e-01   9.9357971697831882e-01   9.9314195534731586e-01   9.9292578253858021e-01   9.9255222187044345e-01   9.9209524171624353e-01   9.9178658656427088e-01   9.9109229910297980e-01   9.9084882071662472e-01   9.8992218860022285e-01   9.8974373542220262e-01   9.8859092643127178e-01   9.8847693912465717e-01   9.8709696011349457e-01   9.8791285012735397e-01   9.8639254427597001e-01   9.8640997469228087e-01   9.8470685541946534e-01   9.8478067915294587e-01   9.8289411600972310e-01   9.8302266023418428e-01   9.8015678349791047e-01   9.8034282314840993e-01   9.7803770637942267e-01   9.7827683930493947e-01   9.7558122289635552e-01   9.7587258599418458e-01   9.7318004751777298e-01   9.7352216824754489e-01   9.7067585943434420e-01   9.7106619157816620e-01   9.6809290847072005e-01   9.6852996733094165e-01   9.6535682347507745e-01   9.6583965160613083e-01   9.5971559656033467e-01   9.6025293776847975e-01   9.5673323579579850e-01   9.5731429923283751e-01   9.5364122532914997e-01   9.5426508528528564e-01   9.5044772740281880e-01   9.5111352916827796e-01   9.4714394704499427e-01   9.4785104320149116e-01   9.4346756225554107e-01   9.4436171754968923e-01   9.3993511934120377e-01   9.4072414111932123e-01   9.3625884925597236e-01   9.3708872569889545e-01   9.3215344047678472e-01   9.3303397955521850e-01   9.2825918554768583e-01   9.2917145750394203e-01   9.2519351944929329e-01   8.8616122905660144e-01   8.8393302542500218e-01   8.9149825352952228e-01   8.8932039043755517e-01   8.9660560427463709e-01   8.9447824971917422e-01   8.9789373306683751e-01   8.9948507980110493e-01   9.0657323961784608e-01   9.0438970476163061e-01   9.1122145552819467e-01   9.0925046180123126e-01   9.1571311811576372e-01   9.1379664992702037e-01   9.2009348561858162e-01   9.1823404204474934e-01   9.1999818418566826e-01   9.1819808701911954e-01   9.2399937473181126e-01   9.2225953585481302e-01   9.2782951714082551e-01   9.2614984467476547e-01   9.3149255084618177e-01   9.2987109490097641e-01   9.3499282648212623e-01   9.3342590666403824e-01   9.4437958788506737e-01   9.3682150015752130e-01   9.4961764552922445e-01   9.4815233438934554e-01   9.5265894027634934e-01   9.5123236515761922e-01   9.5564260689264724e-01   9.5425075176148055e-01   9.5849303213509351e-01   9.5708866394372338e-01   9.5986039205779150e-01   9.9135881818082694e-01   9.9050964629382021e-01   9.9204805137675700e-01   9.9124067971832663e-01   9.9257454590810867e-01   9.9181965746402012e-01   9.9294251212265872e-01   9.9224219808709646e-01   9.9249318395306030e-01   9.9248875794965741e-01   9.9255828194828177e-01   9.9189748139258471e-01   9.9244679801914504e-01   9.9184355273973834e-01   9.9215843901712264e-01   9.9161470675606911e-01   9.9169405928306942e-01   9.9121140530703389e-01   9.9105566139644263e-01   9.9063526065010887e-01   9.9024623118339594e-01   9.8988886699716150e-01   9.8926974820359959e-01   9.8897581420107494e-01   9.8813099681527095e-01   9.8790048812429954e-01   9.8772719735239922e-01   9.8757010121817101e-01   9.8633449399877804e-01   9.8624238726259406e-01   9.8481893410767374e-01   9.8478394157525295e-01   9.8317171200861542e-01   9.8319253655144478e-01   9.8060393334286899e-01   9.8067924874690737e-01   9.7864627680236704e-01   9.7877640556867718e-01   9.7634775071110547e-01   9.7653114549049025e-01   9.7412231416163375e-01   9.7435808989367900e-01   9.7177313548275746e-01   9.7205976433142782e-01   9.6930410751745921e-01   9.6964015270270354e-01   9.6670790867035505e-01   9.6713730931732755e-01   9.6122970355486226e-01   9.6166772879674189e-01   9.5838110546186450e-01   9.5886540593072045e-01   9.5541990876025507e-01   9.5595625132004891e-01   9.5235458935554218e-01   9.4670387831351221e-01   9.4917677875015971e-01   9.4979397863402981e-01   9.4577102531501833e-01   9.4653431045562286e-01   9.4221687289013567e-01   9.4291938046455837e-01   9.3869045702615694e-01   9.3943484514694409e-01   9.3501774681533845e-01   9.3580397079179467e-01   9.3091172940334810e-01   9.3173928192927347e-01   9.2701870015114762e-01   9.2788851487491930e-01   9.2299799503635016e-01   9.2391090487647687e-01   9.1980279219947492e-01   8.8479399220680532e-01   8.7922549915993586e-01   8.9013084550969190e-01   8.8452882909408537e-01   8.9523837497329506e-01   8.9306883156095962e-01   9.0019502042182942e-01   8.9441743870315715e-01   9.0520992139895040e-01   9.0298139351802797e-01   9.0986222115642867e-01   9.0784566882565565e-01   9.1436007569656386e-01   9.1239663878862576e-01   9.1874912974935496e-01   9.1679180427757845e-01   9.1866855560182359e-01   9.2107495954661811e-01   9.2268047148040044e-01   9.2089090391028305e-01   9.2652023526154781e-01   9.2478970181692877e-01   9.3018988905168087e-01   9.2851870104994849e-01   9.3369207113050801e-01   9.3207750892187702e-01   9.3703420625915135e-01   9.3547169674787700e-01   9.4830181995543128e-01   9.4475256194795687e-01   9.5133172708580294e-01   9.4986649191756833e-01   9.5430022435295903e-01   9.5287153310860517e-01   9.5708902174347221e-01   9.5569243596388753e-01   9.5981173334693082e-01   9.5844448299225449e-01   9.6109509334690646e-01   9.8955635070262093e-01   9.8868049404389469e-01   9.9022042083991113e-01   9.8938526367978330e-01   9.9073344305593836e-01   9.8994157806326888e-01   9.9109160276864139e-01   9.9034556650518324e-01   9.9129193893406775e-01   9.9059413099185756e-01   9.9133233059734482e-01   9.9068497094142216e-01   9.9119322651952058e-01   9.9061669984422196e-01   9.9014113718972929e-01   9.9038883967160385e-01   9.8968884852757322e-01   9.9000186924069589e-01   9.8906565418430914e-01   9.8945710775838325e-01   9.8912828562438271e-01   9.8875675073898561e-01   9.8821753542911472e-01   9.8791496532380962e-01   9.8715484437297318e-01   9.8689883709462767e-01   9.8595062970478176e-01   9.8575220433953359e-01   9.8460647661327849e-01   9.8446500609501908e-01   9.8312724764329129e-01   9.8304188942364013e-01   9.8071919213676684e-01   9.8068355255410744e-01   9.7892749392461198e-01   9.7894874426308298e-01   9.7678939636932671e-01   9.7686427804048581e-01   9.7472293906121055e-01   9.7485179941865985e-01   9.7252832050379334e-01   9.7270980923172157e-01   9.7020966897357763e-01   9.7044247743986434e-01   9.6780482485703478e-01   9.6808757619026231e-01   9.6244241432427846e-01   9.6277795538198707e-01   9.5973522077138129e-01   9.6011953161866692e-01   9.5691874171256408e-01   9.5735052707345636e-01   9.5398155796882922e-01   9.5445974883067619e-01   9.5093629914211453e-01   9.5146005868972205e-01   9.4776419315323535e-01   9.4833276349184858e-01   9.4438186669061519e-01   9.4499457963918743e-01   9.4083699835157297e-01   9.4149357358403540e-01   9.3729089520429743e-01   9.3801702644573792e-01   9.3331129169869043e-01   9.3439135392051997e-01   9.2954331777114252e-01   9.3032788953746137e-01   9.2565116896837962e-01   9.2647842310077111e-01   9.2163042310739962e-01   9.2250087347849385e-01   9.1747753181702107e-01   9.1839225404904556e-01   8.8000351052795178e-01   8.7769497552995679e-01   8.8525479735838519e-01   8.8299622184970505e-01   8.9374309779106631e-01   8.8814606132712204e-01   8.9873084872367914e-01   8.9653595819499821e-01   9.0371503037183598e-01   9.0160217138409671e-01   9.0836941785237502e-01   9.0630697938124882e-01   9.1287133540095988e-01   9.1086066492822226e-01   9.1721773425560138e-01   9.1526050012541416e-01   9.2145109534663427e-01   9.1955092856781817e-01   9.2546896781822896e-01   9.1937657820233865e-01   9.2506581431718993e-01   9.2328355130780404e-01   9.2874927336554647e-01   9.2701976286680676e-01   9.3224746908294898e-01   9.3058326456948992e-01   9.3558774817964119e-01   9.3397808263310078e-01   9.3877288363524758e-01   9.3721222821611627e-01   9.4987552886980953e-01   9.4836995563695337e-01   9.5283083198762375e-01   9.5136400206966254e-01   9.5560286091990165e-01   9.5416994713550540e-01   9.5830618817999969e-01   9.5690416230295106e-01   9.6090811354275074e-01   9.5948674502118669e-01   9.6201272561360085e-01   9.8592559083746167e-01   9.8494344235311748e-01   9.8686340310828169e-01   9.8592600858464086e-01   9.8764643280031472e-01   9.8674565278265247e-01   9.8828782028421991e-01   9.8742414774130227e-01   9.8877950721732255e-01   9.8796090657279434e-01   9.8912052087049196e-01   9.8834632655452170e-01   9.8930827895882156e-01   9.8858070508511575e-01   9.8934101573454525e-01   9.8866213168333617e-01   9.8921777003689337e-01   9.8858944557709538e-01   9.8893846503005667e-01   9.8836233541169793e-01   9.8850382882983601e-01   9.8798126081112503e-01   9.8792053508503519e-01   9.8745310672353614e-01   9.8717273832675512e-01   9.8676046775426551e-01   9.8628482348838353e-01   9.8592842164784755e-01   9.8525188765585103e-01   9.8495153885339604e-01   9.8407778434133930e-01   9.8383339936882408e-01   9.8217502149571545e-01   9.8189926347216050e-01   9.8050463718003589e-01   9.8036171377819081e-01   9.7888306833963801e-01   9.7883088837759069e-01   9.7690578126590621e-01   9.7687287859202787e-01   9.7500242463291453e-01   9.7502439598683321e-01   9.7296711510906253e-01   9.7304287832871872e-01   9.7080401326436594e-01   9.7093248409668087e-01   9.6855074463068747e-01   9.6873071144970480e-01   9.6334495723240321e-01   9.6357565878991769e-01   9.6078661010542155e-01   9.6107181225496785e-01   9.5811468054909144e-01   9.5844602263589473e-01   9.5531887758726741e-01   9.5569872163550551e-01   9.5241228839138325e-01   9.5283962905733899e-01   9.4937657428904865e-01   9.4985061042489805e-01   9.4612866412807251e-01   9.4675189845602703e-01   9.4271726393584665e-01   9.4342866695841965e-01   9.3932848975512062e-01   9.3993910086135324e-01   9.3578981756424784e-01   9.3644470922453804e-01   9.3181228434761931e-01   9.3255111243427868e-01   9.2804785193794370e-01   9.2878954574911321e-01   9.2415632309973705e-01   9.2494118203502684e-01   9.2013497317826465e-01   9.2096317017136331e-01   9.1598088228449515e-01   9.1685315209276586e-01   8.7838505191038474e-01   8.7603270158593782e-01   8.8363430718192437e-01   8.8133167042598259e-01   8.8873204156179997e-01   8.8647888186475021e-01   8.9710163724704850e-01   8.9148875193371868e-01   9.0208548850494408e-01   8.9976551035014507e-01   9.0674012651526947e-01   9.0463149264139187e-01   9.1124413240756486e-01   9.0918603058853442e-01   9.1559426507963404e-01   9.1358856604995919e-01   9.1558235371708807e-01   9.13631073246167