<?xml version="1.0"?>
<VTKFile type="UnstructuredGrid"  version="0.1"  >
<UnstructuredGrid>
<Piece  NumberOfPoints="8344" NumberOfCells="16303">
<Points>
<DataArray  type="Float64"  NumberOfComponents="3"  format="ascii">0 0.203125 0  0.00390625 0.203125 0  0.00390625 0.20703125 0  0 0.20703125 0  0.0078125 0.20703125 0  0.00390625 0.2109375 0  0 0.2109375 0  0.0078125 0.2109375 0  0.01171875 0.20703125 0  0.01171875 0.2109375 0  0.015625 0.20703125 0  0.015625 0.2109375 0  0.01953125 0.2109375 0  0.00390625 0.21484375 0  0 0.21484375 0  0.0078125 0.21484375 0  0.01171875 0.21484375 0  0.015625 0.21484375 0  0.01953125 0.21484375 0  0.0234375 0.2109375 0  0.0234375 0.21484375 0  0.02734375 0.2109375 0  0.02734375 0.21484375 0  0.03125 0.2109375 0  0.03125 0.21484375 0  0.03515625 0.21484375 0  0.00390625 0.21875 0  0 0.21875 0  0.0078125 0.21875 0  0.01171875 0.21875 0  0.015625 0.21875 0  0.01953125 0.21875 0  0.0234375 0.21875 0  0.02734375 0.21875 0  0.03125 0.21875 0  0.03515625 0.21875 0  0.0390625 0.21875 0  0.00390625 0.22265625 0  0 0.22265625 0  0.0078125 0.22265625 0  0.01171875 0.22265625 0  0.015625 0.22265625 0  0.01953125 0.22265625 0  0.0234375 0.22265625 0  0.02734375 0.22265625 0  0.03125 0.22265625 0  0.03515625 0.22265625 0  0.0390625 0.22265625 0  0.04296875 0.22265625 0  0.00390625 0.2265625 0  0 0.2265625 0  0.0078125 0.2265625 0  0.01171875 0.2265625 0  0.015625 0.2265625 0  0.01953125 0.2265625 0  0.0234375 0.2265625 0  0.02734375 0.2265625 0  0.03125 0.2265625 0  0.03515625 0.2265625 0  0.0390625 0.2265625 0  0.04296875 0.2265625 0  0.046875 0.2265625 0  0.00390625 0.23046875 0  0 0.23046875 0  0.0078125 0.23046875 0  0.01171875 0.23046875 0  0.015625 0.23046875 0  0.01953125 0.23046875 0  0.0234375 0.23046875 0  0.02734375 0.23046875 0  0.03125 0.23046875 0  0.03515625 0.23046875 0  0.0390625 0.23046875 0  0.04296875 0.23046875 0  0.046875 0.23046875 0  0.00390625 0.234375 0  0 0.234375 0  0.0078125 0.234375 0  0.01171875 0.234375 0  0.015625 0.234375 0  0.01953125 0.234375 0  0.0234375 0.234375 0  0.02734375 0.234375 0  0.03125 0.234375 0  0.03515625 0.234375 0  0.0390625 0.234375 0  0.04296875 0.234375 0  0.046875 0.234375 0  0.00390625 0.23828125 0  0 0.23828125 0  0.0078125 0.23828125 0  0.01171875 0.23828125 0  0.015625 0.23828125 0  0.01953125 0.23828125 0  0.0234375 0.23828125 0  0.02734375 0.23828125 0  0.03125 0.23828125 0  0.03515625 0.23828125 0  0.0390625 0.23828125 0  0.04296875 0.23828125 0  0.046875 0.23828125 0  0.00390625 0.2421875 0  0 0.2421875 0  0.0078125 0.2421875 0  0.01171875 0.2421875 0  0.015625 0.2421875 0  0.01953125 0.2421875 0  0.0234375 0.2421875 0  0.02734375 0.2421875 0  0.03125 0.2421875 0  0.03515625 0.2421875 0  0.0390625 0.2421875 0  0.04296875 0.2421875 0  0.046875 0.2421875 0  0.05078125 0.2421875 0  0.00390625 0.24609375 0  0 0.24609375 0  0.0078125 0.24609375 0  0.01171875 0.24609375 0  0.015625 0.24609375 0  0.01953125 0.24609375 0  0.0234375 0.24609375 0  0.02734375 0.24609375 0  0.03125 0.24609375 0  0.03515625 0.24609375 0  0.0390625 0.24609375 0  0.04296875 0.24609375 0  0.046875 0.24609375 0  0.05078125 0.24609375 0  0.0546875 0.24609375 0  0.00390625 0.25 0  0 0.25 0  0.0078125 0.25 0  0.01171875 0.25 0  0.015625 0.25 0  0.01953125 0.25 0  0.0234375 0.25 0  0.02734375 0.25 0  0.03125 0.25 0  0.03515625 0.25 0  0.0390625 0.25 0  0.04296875 0.25 0  0.046875 0.25 0  0.05078125 0.25 0  0.0546875 0.25 0  0.05859375 0.25 0  0.00390625 0.25390625 0  0 0.25390625 0  0.0078125 0.25390625 0  0.01171875 0.25390625 0  0.015625 0.25390625 0  0.01953125 0.25390625 0  0.0234375 0.25390625 0  0.02734375 0.25390625 0  0.03125 0.25390625 0  0.03515625 0.25390625 0  0.0390625 0.25390625 0  0.04296875 0.25390625 0  0.046875 0.25390625 0  0.05078125 0.25390625 0  0.0546875 0.25390625 0  0.05859375 0.25390625 0  0.00390625 0.2578125 0  0 0.2578125 0  0.0078125 0.2578125 0  0.01171875 0.2578125 0  0.015625 0.2578125 0  0.01953125 0.2578125 0  0.0234375 0.2578125 0  0.02734375 0.2578125 0  0.03125 0.2578125 0  0.03515625 0.2578125 0  0.0390625 0.2578125 0  0.04296875 0.2578125 0  0.046875 0.2578125 0  0.05078125 0.2578125 0  0.0546875 0.2578125 0  0.05859375 0.2578125 0  0.0625 0.2578125 0  0.00390625 0.26171875 0  0 0.26171875 0  0.0078125 0.26171875 0  0.01171875 0.26171875 0  0.015625 0.26171875 0  0.01953125 0.26171875 0  0.0234375 0.26171875 0  0.02734375 0.26171875 0  0.03125 0.26171875 0  0.03515625 0.26171875 0  0.0390625 0.26171875 0  0.04296875 0.26171875 0  0.046875 0.26171875 0  0.05078125 0.26171875 0  0.0546875 0.26171875 0  0.05859375 0.26171875 0  0.0625 0.26171875 0  0.06640625 0.26171875 0  0.00390625 0.265625 0  0 0.265625 0  0.0078125 0.265625 0  0.01171875 0.265625 0  0.015625 0.265625 0  0.01953125 0.265625 0  0.0234375 0.265625 0  0.02734375 0.265625 0  0.03125 0.265625 0  0.03515625 0.265625 0  0.0390625 0.265625 0  0.04296875 0.265625 0  0.046875 0.265625 0  0.05078125 0.265625 0  0.0546875 0.265625 0  0.05859375 0.265625 0  0.0625 0.265625 0  0.06640625 0.265625 0  0.0703125 0.265625 0  0.00390625 0.26953125 0  0 0.26953125 0  0.0078125 0.26953125 0  0.01171875 0.26953125 0  0.015625 0.26953125 0  0.01953125 0.26953125 0  0.0234375 0.26953125 0  0.02734375 0.26953125 0  0.03125 0.26953125 0  0.03515625 0.26953125 0  0.0390625 0.26953125 0  0.04296875 0.26953125 0  0.046875 0.26953125 0  0.05078125 0.26953125 0  0.0546875 0.26953125 0  0.05859375 0.26953125 0  0.0625 0.26953125 0  0.06640625 0.26953125 0  0.0703125 0.26953125 0  0.07421875 0.26953125 0  0.00390625 0.2734375 0  0 0.2734375 0  0.0078125 0.2734375 0  0.01171875 0.2734375 0  0.015625 0.2734375 0  0.01953125 0.2734375 0  0.0234375 0.2734375 0  0.02734375 0.2734375 0  0.03125 0.2734375 0  0.03515625 0.2734375 0  0.0390625 0.2734375 0  0.04296875 0.2734375 0  0.046875 0.2734375 0  0.05078125 0.2734375 0  0.0546875 0.2734375 0  0.05859375 0.2734375 0  0.0625 0.2734375 0  0.06640625 0.2734375 0  0.0703125 0.2734375 0  0.07421875 0.2734375 0  0.078125 0.2734375 0  0.00390625 0.27734375 0  0 0.27734375 0  0.0078125 0.27734375 0  0.01171875 0.27734375 0  0.015625 0.27734375 0  0.01953125 0.27734375 0  0.0234375 0.27734375 0  0.02734375 0.27734375 0  0.03125 0.27734375 0  0.03515625 0.27734375 0  0.0390625 0.27734375 0  0.04296875 0.27734375 0  0.046875 0.27734375 0  0.05078125 0.27734375 0  0.0546875 0.27734375 0  0.05859375 0.27734375 0  0.0625 0.27734375 0  0.06640625 0.27734375 0  0.0703125 0.27734375 0  0.07421875 0.27734375 0  0.078125 0.27734375 0  0.08203125 0.27734375 0  0.00390625 0.28125 0  0 0.28125 0  0.0078125 0.28125 0  0.01171875 0.28125 0  0.015625 0.28125 0  0.01953125 0.28125 0  0.0234375 0.28125 0  0.02734375 0.28125 0  0.03125 0.28125 0  0.03515625 0.28125 0  0.0390625 0.28125 0  0.04296875 0.28125 0  0.046875 0.28125 0  0.05078125 0.28125 0  0.0546875 0.28125 0  0.05859375 0.28125 0  0.0625 0.28125 0  0.06640625 0.28125 0  0.0703125 0.28125 0  0.07421875 0.28125 0  0.078125 0.28125 0  0.08203125 0.28125 0  0.0859375 0.28125 0  0.00390625 0.28515625 0  0 0.28515625 0  0.0078125 0.28515625 0  0.01171875 0.28515625 0  0.015625 0.28515625 0  0.01953125 0.28515625 0  0.0234375 0.28515625 0  0.02734375 0.28515625 0  0.03125 0.28515625 0  0.03515625 0.28515625 0  0.0390625 0.28515625 0  0.04296875 0.28515625 0  0.046875 0.28515625 0  0.05078125 0.28515625 0  0.0546875 0.28515625 0  0.05859375 0.28515625 0  0.0625 0.28515625 0  0.06640625 0.28515625 0  0.0703125 0.28515625 0  0.07421875 0.28515625 0  0.078125 0.28515625 0  0.08203125 0.28515625 0  0.0859375 0.28515625 0  0.08984375 0.28515625 0  0.00390625 0.2890625 0  0 0.2890625 0  0.0078125 0.2890625 0  0.01171875 0.2890625 0  0.015625 0.2890625 0  0.01953125 0.2890625 0  0.0234375 0.2890625 0  0.02734375 0.2890625 0  0.03125 0.2890625 0  0.03515625 0.2890625 0  0.0390625 0.2890625 0  0.04296875 0.2890625 0  0.046875 0.2890625 0  0.05078125 0.2890625 0  0.0546875 0.2890625 0  0.05859375 0.2890625 0  0.0625 0.2890625 0  0.06640625 0.2890625 0  0.0703125 0.2890625 0  0.07421875 0.2890625 0  0.078125 0.2890625 0  0.08203125 0.2890625 0  0.0859375 0.2890625 0  0.08984375 0.2890625 0  0.09375 0.2890625 0  0.00390625 0.29296875 0  0 0.29296875 0  0.0078125 0.29296875 0  0.01171875 0.29296875 0  0.015625 0.29296875 0  0.01953125 0.29296875 0  0.0234375 0.29296875 0  0.02734375 0.29296875 0  0.03125 0.29296875 0  0.03515625 0.29296875 0  0.0390625 0.29296875 0  0.04296875 0.29296875 0  0.046875 0.29296875 0  0.05078125 0.29296875 0  0.0546875 0.29296875 0  0.05859375 0.29296875 0  0.0625 0.29296875 0  0.06640625 0.29296875 0  0.0703125 0.29296875 0  0.07421875 0.29296875 0  0.078125 0.29296875 0  0.08203125 0.29296875 0  0.0859375 0.29296875 0  0.08984375 0.29296875 0  0.09375 0.29296875 0  0.09765625 0.29296875 0  0.00390625 0.296875 0  0 0.296875 0  0.0078125 0.296875 0  0.01171875 0.296875 0  0.015625 0.296875 0  0.01953125 0.296875 0  0.0234375 0.296875 0  0.02734375 0.296875 0  0.03125 0.296875 0  0.03515625 0.296875 0  0.0390625 0.296875 0  0.04296875 0.296875 0  0.046875 0.296875 0  0.05078125 0.296875 0  0.0546875 0.296875 0  0.05859375 0.296875 0  0.0625 0.296875 0  0.06640625 0.296875 0  0.0703125 0.296875 0  0.07421875 0.296875 0  0.078125 0.296875 0  0.08203125 0.296875 0  0.0859375 0.296875 0  0.08984375 0.296875 0  0.09375 0.296875 0  0.09765625 0.296875 0  0.1015625 0.296875 0  0.00390625 0.30078125 0  0 0.30078125 0  0.0078125 0.30078125 0  0.01171875 0.30078125 0  0.015625 0.30078125 0  0.01953125 0.30078125 0  0.0234375 0.30078125 0  0.02734375 0.30078125 0  0.03125 0.30078125 0  0.03515625 0.30078125 0  0.0390625 0.30078125 0  0.04296875 0.30078125 0  0.046875 0.30078125 0  0.05078125 0.30078125 0  0.0546875 0.30078125 0  0.05859375 0.30078125 0  0.0625 0.30078125 0  0.06640625 0.30078125 0  0.0703125 0.30078125 0  0.07421875 0.30078125 0  0.078125 0.30078125 0  0.08203125 0.30078125 0  0.0859375 0.30078125 0  0.08984375 0.30078125 0  0.09375 0.30078125 0  0.09765625 0.30078125 0  0.1015625 0.30078125 0 
[...]
<CellData  Scalars="f_11"> 
<DataArray  type="Float64"  Name="f_11"  format="ascii">4.8839301285421117e-03   2.4615198344668673e-03   9.8107911890861297e-03   4.9639958234373172e-03   2.5013569651552900e-03   1.2394902343045163e-02   9.9705173554715844e-03   1.9830097566540271e-02   1.7444163248462374e-02   2.7268260548884454e-02   2.4921298385506135e-02   3.2400181556153908e-02   5.0432726306463239e-03   2.5408104664936290e-03   1.2593267671699913e-02   1.0128661761793426e-02   2.0147508247374768e-02   1.7720997690103466e-02   2.7704559131669131e-02   2.5316703065310246e-02   3.5262680706949191e-02   3.2914017300479069e-02   4.2820142790509531e-02   4.0511202238385502e-02   5.0375262613920509e-02   4.8106560143133033e-02   5.7926276128264363e-02   5.5698331324900117e-02   6.3284794329428420e-02   5.1217875029342455e-03   2.5798858238079152e-03   1.2789673340203976e-02   1.0285261205494943e-02   2.0461794259773434e-02   1.7995075897927908e-02   2.8136630869222419e-02   2.5708230734531733e-02   3.5812386346879499e-02   3.3422851133218238e-02   4.3487346596260835e-02   4.1137195274181783e-02   5.1159813054077449e-02   4.8849568231457759e-02   5.8828007480693875e-02   5.6558191171210567e-02   6.6490243622619183e-02   6.4261347667038934e-02   7.1957499223349694e-02   5.1995307893245553e-03   2.6185678983676047e-03   1.2984172651038715e-02   1.0440343927352609e-02   2.0772949914733437e-02   1.8266458876911428e-02   2.8564407462802668e-02   2.6095843203921526e-02   3.6356659496339594e-02   3.3926611949236365e-02   4.4147957289275418e-02   4.1756958474159993e-02   5.1936605229858733e-02   4.9585163369505830e-02   5.9720828432233135e-02   5.7409486610181477e-02   6.7498929825533571e-02   6.5228175417032089e-02   7.5269355830162435e-02   7.3039683784353174e-02   8.0842308482170985e-02   5.2765007584135376e-03   2.6568700951451751e-03   1.3176724335432216e-02   1.0593844123154315e-02   2.1081020852420657e-02   1.8535115156014581e-02   2.8987868270206742e-02   2.6479537024994438e-02   3.6895416606963181e-02   3.4425234551402874e-02   4.4801878229558750e-02   4.2370386214393443e-02   5.2705529981334646e-02   5.0313251795112028e-02   6.0604608628012813e-02   5.8252084291347157e-02   6.8497404906576478e-02   6.6185130921450869e-02   7.6382354516765033e-02   7.4110823392550401e-02   8.4257772425422039e-02   8.2027456590277908e-02   8.9933471413464167e-02   5.3526793227757713e-03   2.6947609193950233e-03   1.3367305073988695e-02   1.0745771002496950e-02   2.1385898434779376e-02   1.8800968681216376e-02   2.9406960222316262e-02   2.6859227393493012e-02   3.7428591189923616e-02   3.4918646787242824e-02   4.5448997835499536e-02   4.2977386475547746e-02   5.3466462463539456e-02   5.1033708657224952e-02   6.1479157065413598e-02   5.9085849730828408e-02   6.9485517182565654e-02   6.7132061373153640e-02   7.7483793693481615e-02   7.5170750275110373e-02   8.5472367711301803e-02   8.3200204528999164e-02   9.3449630700824918e-02   9.1218835973881154e-02   5.4280464049409312e-03   2.7322517860902721e-03   1.3555855500903324e-02   1.0896049372152940e-02   2.1687556020905024e-02   1.9063977022554312e-02   2.9821597478428750e-02   2.7234855920922028e-02   3.7956083761828296e-02   3.5406766027332386e-02   4.6089226552704768e-02   4.3577870919838037e-02   5.4219282432650812e-02   5.1746421200073008e-02   6.2344431320606103e-02   5.9910652877268607e-02   7.0463085083912594e-02   6.8068796578127991e-02   7.8573495926095596e-02   7.6219278244167674e-02   8.6673998524815207e-02   8.4360321920722944e-02   9.4763048357530036e-02   9.2490383564032427e-02   5.5025870233279869e-03   2.7693162963844252e-03   1.3742349827915336e-02   1.1044682163030992e-02   2.1985900809684919e-02   1.9324079848626153e-02   3.0231699330510307e-02   2.7606323275440704e-02   3.8477833712042359e-02   3.5889507383794234e-02   4.6722464436736721e-02   4.4171747495699187e-02   5.4963885602852272e-02   5.2451294209420733e-02   6.3200251165264287e-02   6.0726378122797339e-02   7.1429957157525231e-02   6.8995222472318540e-02   7.9651264998281207e-02   7.7256224505093923e-02   8.7862494386472062e-02   8.5507669233368708e-02   9.6062088715481039e-02   9.3747892011953687e-02   5.5762881590981474e-03   2.8059678279653485e-03   1.3926736095124461e-02   1.1191612882931674e-02   2.2280901994470068e-02   1.9581226004758683e-02   3.0637191335885366e-02   2.7973591070043671e-02   3.8993709106407731e-02   3.6366767991725696e-02   4.7348624578932325e-02   4.4758915348264719e-02   5.5700155013708619e-02   5.3148219446566447e-02   6.4046509821240119e-02   6.1532915112963715e-02   7.2386029678966360e-02   6.9911219645288097e-02   8.0716978550919000e-02   7.8281510898730658e-02   8.9037694451792188e-02   8.6642075948011057e-02   9.7346597021004261e-02   9.4991253865236644e-02   1.0332748659585472e-01   5.6491397118999280e-03   2.8421829004438804e-03   1.4109011203206397e-02   1.1336858383847372e-02   2.2572485627674405e-02   1.9835394087785351e-02   3.1038024752431954e-02   2.8336595357446395e-02   3.9503670124188178e-02   3.6838526104404391e-02   4.7967589947677303e-02   4.5339288490272918e-02   5.6428001712157824e-02   5.3837097984801817e-02   6.4883081582254226e-02   6.2330145660936739e-02   7.3331174804400531e-02   7.0816658355169870e-02   8.1770527498598242e-02   7.9294992119645219e-02   9.0199474108775518e-02   8.7763421818898235e-02   9.8616418315549778e-02   9.6220288516317296e-02   1.0701973162980816e-01   1.0466400624488410e-01   1.1309300017106634e-01   5.7211327622142287e-03   2.8779760723165442e-03   1.4289135395266540e-02   1.1480366607848552e-02   2.2860683421761546e-02   2.0086577550878119e-02   3.1434165467107721e-02   2.8695345040333525e-02   4.0007664229404889e-02   3.7304731933299917e-02   4.8579307933564124e-02   4.5912829811363229e-02   5.7147314330711262e-02   5.4517841206262942e-02   6.5709849978712820e-02   6.3117930347400042e-02   7.4265245895615964e-02   7.1711400310203025e-02   8.2811747289888424e-02   8.0296509791869863e-02   9.1347655791890137e-02   8.8871541348015171e-02   9.9871371623705393e-02   9.7434820872756484e-02   1.0838126616562216e-01   1.0598476454324686e-01   1.1687578357365701e-01   1.1451977495995684e-01   1.2303834616716144e-01   5.7922526604594566e-03   2.9133181331036672e-03   1.4467118928879048e-02   1.1622161696156055e-02   2.3145420966035231e-02   2.0334731133318053e-02   3.1825594701563535e-02   2.9049776532938321e-02   4.0505651940210656e-02   3.7765334071649427e-02   4.9183716824605803e-02   4.6479472860584084e-02   5.7858006757652944e-02   5.5190374493676288e-02   6.6526706714087280e-02   6.3896232631297289e-02   7.5188106333238011e-02   7.2595331715342826e-02   8.3840470853488031e-02   8.1285912116148495e-02   9.2482072279138877e-02   8.9966266425160951e-02   1.0111128746480628e-01   9.8634680980863768e-02   1.0972649587429995e-01   1.0728957271404137e-01   1.1832612961506206e-01   1.1592935215568601e-01   1.2690867010420145e-01   1.2455246216662946e-01   5.8625206266031188e-03   2.9482595110541625e-03   1.4642914157528102e-02   1.1762207642070966e-02   2.3426712769943781e-02   2.0579852997657820e-02   3.2212228402989873e-02   2.9399854569143256e-02   4.0997540402000369e-02   3.8220251985205539e-02   4.9780733347311951e-02   4.7039118053449604e-02   5.8560000719037053e-02   5.5854616411717822e-02   6.7333539454529523e-02   6.4664917851250212e-02   7.6099647031110718e-02   7.3468328244860215e-02   8.4856554844025670e-02   8.2263068871706105e-02   9.3602544916622246e-02   9.1047423144996795e-02   1.0233598002306281e-01   9.9819680309774714e-02   1.1105521554065254e-01   1.0857823242291423e-01   1.1975869461625881e-01   1.1732148116257259e-01   1.2844484032116255e-01   1.2604785022859161e-01   1.3475579170360150e-01   5.9319268394521837e-03   2.9827399544918270e-03   1.4816565554644966e-02   1.1900545896163321e-02   2.3704477885268759e-02   2.0821896921801610e-02   3.2594043992678325e-02   2.9745527090877872e-02   4.1483273009798455e-02   3.8669438371776450e-02   5.0370252192798906e-02   4.7591693104221074e-02   5.9253185208457404e-02   5.6510445860369150e-02   6.8130247686212023e-02   6.5423879075984279e-02   7.6999724418129384e-02   7.4330264895456938e-02   8.5859860373934990e-02   8.3227838836623561e-02   9.4708916522040179e-02   9.2114869787364953e-02   1.0354524974544679e-01   1.0098963693576563e-01   1.1236720708149404e-01   1.0985052708679370e-01   1.2117320851115312e-01   1.1869591754636775e-01   1.2996167582399221e-01   1.2752424755717318e-01   1.3873104258018315e-01   1.3633392121412422e-01   1.4512344808238731e-01   6.0004367413767452e-03   3.0167851570362613e-03   1.4987983898890547e-02   1.2037061258704648e-02   2.3978708697713253e-02   2.1060815513332651e-02   3.2970949750934432e-02   3.0086712350412114e-02   4.1962750797245693e-02   3.9112779068396150e-02   5.0952201714298199e-02   4.8137092449382454e-02   5.9937444296719634e-02   5.7157768172505834e-02   6.8916693919774161e-02   6.6172979891207531e-02   7.7888214060338148e-02   7.5181011170708620e-02   8.6850241946187193e-02   8.4180079084879289e-02   9.5801028485631615e-02   9.3168446793713569e-02   1.0473892325440087e-01   1.0214438865441729e-01   1.1366226401391179e-01   1.1110627263421985e-01   1.2256945186491236e-01   1.2005247832437814e-01   1.3145891933001164e-01   1.2898141459827850e-01   1.4032909839483176e-01   1.3789152500288229e-01   1.4917849067809241e-01   1.4678126654641940e-01   1.5564922848599749e-01   6.0680391445182133e-03   3.0503582277262940e-03   1.5157137551666205e-02   1.2171766696204655e-02   2.4249279879966220e-02   2.1296524862914751e-02   3.3342864397505077e-02   3.0423325682116118e-02   4.2435890405435217e-02   3.9550213548614793e-02   5.1526432461589812e-02   4.8675202922616422e-02   6.0612670531676065e-02   5.7796455350935513e-02   6.9692756378537890e-02   6.6912106219612896e-02   7.8764969652925121e-02   7.6020428410510099e-02   8.7827542956306209e-02   8.5119640448959963e-02   9.6878718628799043e-02   9.4207998605631477e-02   1.0591683116801445e-01   1.0328376748345892e-01   1.1494021321470649e-01   1.1234530290937007e-01   1.2394725561077966e-01   1.2139097874092955e-01   1.3293637594891691e-01   1.3041919049660092e-01   1.4190602240979136e-01   1.3942837444060169e-01   1.5085467650688811e-01   1.4841700575541172e-01   1.5978090008447418e-01   1.5738357250504284e-01   1.6632667032969395e-01   6.1347235262484926e-03   3.0834855308942183e-03   1.5323983620384620e-02   1.2304621078301891e-02   2.4516205602104567e-02   2.1529035481530717e-02   3.3709726915345010e-02   3.0755362361011611e-02   4.2902605976917495e-02   3.9981658423682565e-02   5.2092892816891383e-02   4.9205973419276128e-02   6.1278737467795788e-02   5.8426417504996775e-02   7.0458312913429702e-02   6.7641145301893885e-02   7.9629861991700343e-02   7.6848396221502455e-02   8.8791619280616116e-02   8.6046385706312845e-02   9.7941825282946052e-02   9.5233367289439888e-02   1.0707880408043131e-01   1.0440760411177619e-01   1.1620087465352823e-01   1.1356743868387058e-01   1.2530642458906971e-01   1.2271122808359061e-01   1.3439385978244286e-01   1.3183736846577024e-01   1.4346161103832877e-01   1.4094427671429230e-01   1.5250817530256353e-01   1.5003042854801882e-01   1.6153203760473248e-01   1.5909431114726172e-01   1.7053177914255840e-01   1.6813447293075764e-01   1.7714938831865726e-01   6.2004912604904745e-03   3.1161420814663303e-03   1.5488542468773825e-02   1.2435650393481719e-02   2.4779433672084940e-02   2.1758303430825070e-02   3.4071533622251619e-02   3.1082775500878911e-02   4.3362856950320813e-02   4.0407097019641021e-02   5.2651500374079799e-02   4.9729323427516153e-02   6.1935579729778319e-02   5.9047584903027590e-02   7.1213255604377024e-02   6.8359997538643247e-02   8.0482763974321414e-02   7.7664790584069443e-02   8.9742332615888779e-02   8.6960177056543284e-02   9.8990192217898773e-02   9.6244405001788685e-02   1.0822466588738230e-01   1.0551573179410216e-01   1.1744406568239528e-01   1.1477249384602441e-01   1.2664675365162886e-01   1.2401302751738388e-01   1.3583114733998602e-01   1.3323573284444079e-01   1.4499565776356249e-01   1.4243901719033678e-01   1.5413876383006289e-01   1.5162132736326733e-01   1.6325895529007944e-01   1.6078115472166879e-01   1.7235474348592336e-01   1.6991699543468838e-01   1.8142470947610176e-01   1.7902736928170776e-01   1.8811083529427625e-01   6.2653227731852661e-03   3.1483332883595139e-03   1.5650771958599114e-02   1.2564793297727092e-02   2.5038954730346150e-02   2.1984315207251900e-02   3.4428208510597018e-02   3.1405517836386121e-02   4.3816590966123996e-02   4.0826460315946736e-02   5.3202183927321234e-02   5.0245204203233147e-02   6.2583093026217174e-02   5.9659862721714293e-02   7.1957477688186153e-02   6.9068557085733381e-02   8.1323548433535356e-02   7.8469493265992812e-02   9.0679535677890874e-02   8.7860882619768418e-02   1.0002366585784460e-01   9.7240961395465425e-02   1.0935425176367047e-01   1.0660799050873161e-01   1.1866959523376445e-01   1.1596028870784469e-01   1.2796805380478149e-01   1.2529619277672677e-01   1.3724802780211395e-01   1.3461407560596528e-01   1.4650793299339346e-01   1.4391235616316486e-01   1.5574622951872161e-01   1.5318947438615918e-01   1.6496138391405674e-01   1.6244387791134415e-01   1.7415190118683574e-01   1.7167407038201699e-01   1.8331630180594641e-01   1.8087855926560883e-01   1.9245314405279956e-01   1.9005590519650564e-01   1.9920467825467467e-01   6.3292129371378845e-03   3.1800486387895703e-03   1.5810645296241897e-02   1.2692054434503745e-02   2.5294703299907850e-02   2.2207011821777773e-02   3.4779716583767245e-02   3.1723541578475074e-02   4.4263741878797148e-02   4.1239688292300715e-02   5.3744863928423106e-02   5.0753525299448571e-02   6.3221190049643869e-02   6.0263164902692186e-02   7.2690863390270782e-02   6.9766726575372584e-02   8.2152094789066668e-02   7.9262385476397759e-02   9.1603095607616605e-02   8.8748366688603100e-02   1.0104210490614793e-01   9.8222892734728645e-02   1.1046739104673423e-01   1.0768421573357327e-01   1.1987728208777085e-01   1.1713064705874345e-01   1.2927011176817510e-01   1.2656051136981047e-01   1.3864427611859870e-01   1.3597217973941722e-01   1.4799818167009704e-01   1.4536405371020725e-01   1.5733028269924179e-01   1.5473458004870427e-01   1.6663901847008070e-01   1.6408217838607189e-01   1.7592290837641852e-01   1.7340536246348059e-01   1.8518042978838900e-01   1.8270260970201441e-01   1.9441019342374433e-01   1.9197246055183909e-01   2.0361074771927606e-01   2.0121352725057987e-01   2.1042433590877763e-01   6.3921434510601696e-03   3.2112803219496409e-03   1.5968136072457329e-02   1.2817389425449176e-02   2.5546640457603791e-02   2.2426355579583498e-02   3.5125986286159740e-02   3.2036776647411433e-02   4.4704227306686078e-02   4.1646700304979377e-02   5.4279457729744837e-02   5.1254207119588363e-02   6.3849768409498589e-02   6.0857394063729996e-02   7.3413311092382097e-02   7.0454386889772763e-02   8.2968276064581958e-02   8.0043347766591499e-02   9.2512875851449211e-02   8.9622498570766096e-02   1.0204533402825987e-01   9.9190046541756019e-02   1.1156392042616080e-01   1.0874424618916215e-01   1.2106694223316872e-01   1.1828339198790010e-01   1.3055273507142839e-01   1.2780580420558812e-01   1.4001968018619759e-01   1.3730984149463887e-01   1.4946619048317947e-01   1.4679391371250680e-01   1.5889068006157520e-01   1.5625641962477435e-01   1.6829161830089212e-01   1.6569582262319041e-01   1.7766749016903929e-01   1.7511058608727814e-01   1.8701679421022308e-01   1.8449922058731597e-01   1.9633805526707887e-01   1.9386020900746340e-01   2.0562989130141296e-01   2.0319215218360590e-01   2.1489077812965085e-01   2.1249358333842364e-01   2.2176300964305951e-01   6.4541039297975646e-03   3.2420257359158616e-03   1.6123200329344081e-02   1.2940778002744057e-02   2.5794710429278330e-02   2.2642301833779108e-02   3.5466947917135769e-02   3.2345166577008540e-02   4.5137976053681340e-02   4.2047433301316293e-02   5.4805872643228941e-02   5.1747163652941325e-02   6.4468741028733012e-02   6.1442465400161947e-02   7.4124710146977774e-02   7.1131445712293628e-02   8.3771974057636867e-02   8.0812268252064584e-02   9.3408734098906057e-02   9.0483142650713430e-02   1.0303321292030206e-01   1.0014227897590394e-01   1.1264366788931289e-01   1.0978791488860112e-01   1.2223840431497424e-01   1.1941835495908933e-01   1.3181573818689590e-01   1.2903188853107578e-01   1.4137404127769240e-01   1.3862687100300627e-01   1.5091172919088075e-01   1.4820170679441202e-01   1.6042720202858451e-01   1.5775478836194720e-01   1.6991892803140257e-01   1.6728456976197176e-01   1.7938537640162219e-01   1.7678951429036491e-01   1.8882502855001992e-01   1.8626808893257038e-01   1.9823641828332442e-01   1.9571881144563125e-01   2.0761809816925467e-01   2.0514021052307585e-01   2.1696861956334615e-01   2.1453087350292105e-01   2.2628644977434378e-01   2.2388929686951714e-01   2.3321404745223343e-01   6.5150856379309410e-03   3.2722787673624765e-03   1.6275821725709853e-02   1.3062207598241636e-02   2.6038877875976182e-02   2.2854820095457154e-02   3.5802557034444057e-02   3.2648676924205283e-02   4.5564920615282833e-02   4.2441823849612953e-02   5.5324040059436974e-02   5.2232334264254575e-02   6.5078008839653867e-02   6.2018288697870246e-02   7.4824961811552446e-02   7.1797805953386584e-02   8.4563071272968804e-02   8.1569035257022623e-02   9.4290540010658300e-02   9.1330178814150439e-02   1.0400559405257760e-01   1.0107944811985822e-01   1.1370647926786158e-01   1.1081508376633564e-01   1.2339148898662169e-01   1.2053536381460814e-01   1.3305893610047864e-01   1.3023858590137322e-01   1.4270716995830837e-01   1.3992308436090861e-01   1.5233460128667786e-01   1.4958724440520010e-01   1.6193963744011106e-01   1.5922947260203624e-01   1.7152072140950594e-01   1.6884820291637567e-01   1.8107631728712675e-01   1.7844188473689607e-01   1.9060489675768752e-01   1.8800898766834603e-01   2.0010497297227997e-01   1.9754799785966259e-01   2.0957508705377093e-01   2.0705745636758588e-01   2.1901379311268007e-01   2.1653589430237893e-01   2.2841964516565191e-01   2.2598188745292269e-01   2.3779114082962138e-01   2.3539396336668011e-01   2.4477067218808049e-01   6.5750793049994217e-03   3.3020362516624660e-03   1.6425984953127484e-02   1.3181663576401758e-02   2.6279115678328743e-02   2.3063894660550120e-02   3.6132773862557796e-02   3.2947270389900710e-02   4.5985006229173911e-02   4.2829835080070017e-02   5.5833883341783803e-02   5.2709646519672998e-02   6.5677493364506373e-02   6.2584791032179538e-02   7.5513960652012616e-02   7.2453371941715833e-02   8.5341456198652577e-02   8.2313541861984751e-02   9.5158177298579005e-02   9.2163493927017531e-02   1.0496234153430235e-01   1.0200143310080514e-01   1.1475220153287466e-01   1.1182560089797668e-01   1.2452603537642747e-01   1.2163426830966961e-01   1.3428214470786359e-01   1.3142571934333538e-01   1.4401887959843387e-01   1.4119828512340707e-01   1.5373461090694010e-01   1.5095033486272777e-01   1.6342776133747658e-01   1.6068025777978281e-01   1.7309676997933784e-01   1.7038649323920876e-01   1.8274007342345183e-01   1.8006747716139279e-01   1.9235614358698344e-01   1.8972166189521877e-01   2.0194348196351689e-01   1.9934753678118633e-01   2.1150061308258317e-01   2.0894361378408341e-01   2.2102607525378473e-01   2.1850842713116800e-01   2.3051843144627651e-01   2.2804051804229403e-01   2.3997622714771136e-01   2.3753845291320239e-01   2.4939794265114643e-01   2.4700069103143554e-01   2.5642597225824354e-01   6.6340880929268622e-03   3.3313045166419686e-03   1.6573671565411379e-02   1.3299139180603497e-02   2.6515406005793073e-02   2.3269504280434426e-02   3.6457561194419660e-02   3.3240917816499758e-02   4.6398185749258698e-02   4.3211414687812290e-02   5.6335340416692026e-02   5.3179047612385337e-02   6.6267108557595322e-02   6.3141893002704105e-02   7.6191616559475844e-02   7.3098057643984832e-02   8.6107024945154931e-02   8.30456904006469