<?xml version="1.0"?>
<VTKFile type="UnstructuredGrid"  version="0.1"  >
<UnstructuredGrid>
<Piece  NumberOfPoints="8469" NumberOfCells="16529">
<Points>
<DataArray  type="Float64"  NumberOfComponents="3"  format="ascii">0.42578125 0 0  0.4296875 0 0  0.4296875 0.00390625 0  0.42578125 0.00390625 0  0.43359375 0 0  0.43359375 0.00390625 0  0.4375 0 0  0.4375 0.00390625 0  0.44140625 0 0  0.44140625 0.00390625 0  0.4453125 0 0  0.4453125 0.00390625 0  0.44921875 0 0  0.44921875 0.00390625 0  0.453125 0 0  0.453125 0.00390625 0  0.45703125 0 0  0.45703125 0.00390625 0  0.4609375 0 0  0.4609375 0.00390625 0  0.46484375 0 0  0.46484375 0.00390625 0  0.46875 0 0  0.46875 0.00390625 0  0.47265625 0 0  0.47265625 0.00390625 0  0.4765625 0 0  0.4765625 0.00390625 0  0.48046875 0 0  0.48046875 0.00390625 0  0.484375 0 0  0.484375 0.00390625 0  0.48828125 0 0  0.48828125 0.00390625 0  0.4921875 0 0  0.4921875 0.00390625 0  0.49609375 0 0  0.49609375 0.00390625 0  0.5 0 0  0.5 0.00390625 0  0.50390625 0 0  0.50390625 0.00390625 0  0.5078125 0 0  0.5078125 0.00390625 0  0.51171875 0 0  0.51171875 0.00390625 0  0.515625 0 0  0.515625 0.00390625 0  0.51953125 0 0  0.51953125 0.00390625 0  0.5234375 0 0  0.5234375 0.00390625 0  0.52734375 0 0  0.52734375 0.00390625 0  0.53125 0 0  0.53125 0.00390625 0  0.53515625 0 0  0.53515625 0.00390625 0  0.5390625 0 0  0.5390625 0.00390625 0  0.54296875 0 0  0.54296875 0.00390625 0  0.546875 0 0  0.546875 0.00390625 0  0.55078125 0 0  0.55078125 0.00390625 0  0.5546875 0 0  0.5546875 0.00390625 0  0.55859375 0 0  0.55859375 0.00390625 0  0.5625 0 0  0.5625 0.00390625 0  0.56640625 0 0  0.56640625 0.00390625 0  0.5703125 0 0  0.5703125 0.00390625 0  0.57421875 0 0  0.57421875 0.00390625 0  0.578125 0 0  0.578125 0.00390625 0  0.58203125 0 0  0.58203125 0.00390625 0  0.5859375 0 0  0.5859375 0.00390625 0  0.58984375 0 0  0.58984375 0.00390625 0  0.59375 0 0  0.59375 0.00390625 0  0.59765625 0 0  0.59765625 0.00390625 0  0.6015625 0 0  0.6015625 0.00390625 0  0.60546875 0 0  0.60546875 0.00390625 0  0.609375 0 0  0.609375 0.00390625 0  0.61328125 0 0  0.61328125 0.00390625 0  0.6171875 0 0  0.6171875 0.00390625 0  0.62109375 0 0  0.62109375 0.00390625 0  0.625 0 0  0.625 0.00390625 0  0.62890625 0 0  0.62890625 0.00390625 0  0.6328125 0 0  0.6328125 0.00390625 0  0.63671875 0 0  0.63671875 0.00390625 0  0.640625 0 0  0.640625 0.00390625 0  0.64453125 0 0  0.64453125 0.00390625 0  0.6484375 0 0  0.6484375 0.00390625 0  0.65234375 0 0  0.65234375 0.00390625 0  0.65625 0 0  0.65625 0.00390625 0  0.66015625 0 0  0.66015625 0.00390625 0  0.6640625 0 0  0.6640625 0.00390625 0  0.66796875 0 0  0.66796875 0.00390625 0  0.671875 0 0  0.671875 0.00390625 0  0.67578125 0 0  0.67578125 0.00390625 0  0.6796875 0 0  0.6796875 0.00390625 0  0.68359375 0 0  0.68359375 0.00390625 0  0.6875 0 0  0.6875 0.00390625 0  0.69140625 0 0  0.69140625 0.00390625 0  0.6953125 0 0  0.6953125 0.00390625 0  0.69921875 0 0  0.69921875 0.00390625 0  0.703125 0 0  0.703125 0.00390625 0  0.70703125 0 0  0.70703125 0.00390625 0  0.7109375 0 0  0.7109375 0.00390625 0  0.71484375 0 0  0.71484375 0.00390625 0  0.71875 0 0  0.71875 0.00390625 0  0.72265625 0 0  0.72265625 0.00390625 0  0.7265625 0 0  0.7265625 0.00390625 0  0.73046875 0 0  0.73046875 0.00390625 0  0.734375 0 0  0.734375 0.00390625 0  0.73828125 0 0  0.73828125 0.00390625 0  0.7421875 0 0  0.7421875 0.00390625 0  0.74609375 0 0  0.74609375 0.00390625 0  0.75 0 0  0.75 0.00390625 0  0.75390625 0 0  0.75390625 0.00390625 0  0.7578125 0 0  0.7578125 0.00390625 0  0.76171875 0 0  0.76171875 0.00390625 0  0.765625 0 0  0.765625 0.00390625 0  0.76953125 0 0  0.76953125 0.00390625 0  0.7734375 0 0  0.7734375 0.00390625 0  0.77734375 0 0  0.77734375 0.00390625 0  0.78125 0 0  0.78125 0.00390625 0  0.78515625 0 0  0.78515625 0.00390625 0  0.7890625 0 0  0.7890625 0.00390625 0  0.79296875 0 0  0.79296875 0.00390625 0  0.796875 0 0  0.796875 0.00390625 0  0.80078125 0 0  0.80078125 0.00390625 0  0.8046875 0 0  0.8046875 0.00390625 0  0.80859375 0 0  0.80859375 0.00390625 0  0.8125 0 0  0.8125 0.00390625 0  0.81640625 0 0  0.81640625 0.00390625 0  0.8203125 0 0  0.8203125 0.00390625 0  0.82421875 0 0  0.82421875 0.00390625 0  0.828125 0 0  0.828125 0.00390625 0  0.83203125 0 0  0.83203125 0.00390625 0  0.8359375 0 0  0.8359375 0.00390625 0  0.83984375 0 0  0.83984375 0.00390625 0  0.84375 0 0  0.84375 0.00390625 0  0.84765625 0 0  0.84765625 0.00390625 0  0.8515625 0 0  0.8515625 0.00390625 0  0.85546875 0 0  0.85546875 0.00390625 0  0.859375 0 0  0.859375 0.00390625 0  0.86328125 0 0  0.86328125 0.00390625 0  0.8671875 0 0  0.8671875 0.00390625 0  0.87109375 0 0  0.87109375 0.00390625 0  0.875 0 0  0.875 0.00390625 0  0.87890625 0 0  0.87890625 0.00390625 0  0.8828125 0 0  0.8828125 0.00390625 0  0.88671875 0 0  0.88671875 0.00390625 0  0.890625 0 0  0.890625 0.00390625 0  0.89453125 0 0  0.89453125 0.00390625 0  0.8984375 0 0  0.8984375 0.00390625 0  0.90234375 0 0  0.90234375 0.00390625 0  0.90625 0 0  0.90625 0.00390625 0  0.91015625 0 0  0.91015625 0.00390625 0  0.9140625 0 0  0.9140625 0.00390625 0  0.91796875 0 0  0.91796875 0.00390625 0  0.921875 0 0  0.921875 0.00390625 0  0.92578125 0 0  0.92578125 0.00390625 0  0.9296875 0 0  0.9296875 0.00390625 0  0.93359375 0 0  0.93359375 0.00390625 0  0.9375 0 0  0.9375 0.00390625 0  0.94140625 0 0  0.94140625 0.00390625 0  0.9453125 0 0  0.9453125 0.00390625 0  0.94921875 0 0  0.94921875 0.00390625 0  0.953125 0 0  0.953125 0.00390625 0  0.95703125 0 0  0.95703125 0.00390625 0  0.9609375 0 0  0.9609375 0.00390625 0  0.96484375 0 0  0.96484375 0.00390625 0  0.96875 0 0  0.96875 0.00390625 0  0.97265625 0 0  0.97265625 0.00390625 0  0.9765625 0 0  0.9765625 0.00390625 0  0.98046875 0 0  0.98046875 0.00390625 0  0.984375 0 0  0.984375 0.00390625 0  0.98828125 0 0  0.98828125 0.00390625 0  0.9921875 0 0  0.9921875 0.00390625 0  0.99609375 0 0  0.99609375 0.00390625 0  1 0 0  1 0.00390625 0  0.4296875 0.0078125 0  0.43359375 0.0078125 0  0.4375 0.0078125 0  0.44140625 0.0078125 0  0.4453125 0.0078125 0  0.44921875 0.0078125 0  0.453125 0.0078125 0  0.45703125 0.0078125 0  0.4609375 0.0078125 0  0.46484375 0.0078125 0  0.46875 0.0078125 0  0.47265625 0.0078125 0  0.4765625 0.0078125 0  0.48046875 0.0078125 0  0.484375 0.0078125 0  0.48828125 0.0078125 0  0.4921875 0.0078125 0  0.49609375 0.0078125 0  0.5 0.0078125 0  0.50390625 0.0078125 0  0.5078125 0.0078125 0  0.51171875 0.0078125 0  0.515625 0.0078125 0  0.51953125 0.0078125 0  0.5234375 0.0078125 0  0.52734375 0.0078125 0  0.53125 0.0078125 0  0.53515625 0.0078125 0  0.5390625 0.0078125 0  0.54296875 0.0078125 0  0.546875 0.0078125 0  0.55078125 0.0078125 0  0.5546875 0.0078125 0  0.55859375 0.0078125 0  0.5625 0.0078125 0  0.56640625 0.0078125 0  0.5703125 0.0078125 0  0.57421875 0.0078125 0  0.578125 0.0078125 0  0.58203125 0.0078125 0  0.5859375 0.0078125 0  0.58984375 0.0078125 0  0.59375 0.0078125 0  0.59765625 0.0078125 0  0.6015625 0.0078125 0  0.60546875 0.0078125 0  0.609375 0.0078125 0  0.61328125 0.0078125 0  0.6171875 0.0078125 0  0.62109375 0.0078125 0  0.625 0.0078125 0  0.62890625 0.0078125 0  0.6328125 0.0078125 0  0.63671875 0.0078125 0  0.640625 0.0078125 0  0.64453125 0.0078125 0  0.6484375 0.0078125 0  0.65234375 0.0078125 0  0.65625 0.0078125 0  0.66015625 0.0078125 0  0.6640625 0.0078125 0  0.66796875 0.0078125 0  0.671875 0.0078125 0  0.67578125 0.0078125 0  0.6796875 0.0078125 0  0.68359375 0.0078125 0  0.6875 0.0078125 0  0.69140625 0.0078125 0  0.6953125 0.0078125 0  0.69921875 0.0078125 0  0.703125 0.0078125 0  0.70703125 0.0078125 0  0.7109375 0.0078125 0  0.71484375 0.0078125 0  0.71875 0.0078125 0  0.72265625 0.0078125 0  0.7265625 0.0078125 0  0.73046875 0.0078125 0  0.734375 0.0078125 0  0.73828125 0.0078125 0  0.7421875 0.0078125 0  0.74609375 0.0078125 0  0.75 0.0078125 0  0.75390625 0.0078125 0  0.7578125 0.0078125 0  0.76171875 0.0078125 0  0.765625 0.0078125 0  0.76953125 0.0078125 0  0.7734375 0.0078125 0  0.77734375 0.0078125 0  0.78125 0.0078125 0  0.78515625 0.0078125 0  0.7890625 0.0078125 0  0.79296875 0.0078125 0  0.796875 0.0078125 0  0.80078125 0.0078125 0  0.8046875 0.0078125 0  0.80859375 0.0078125 0  0.8125 0.0078125 0  0.81640625 0.0078125 0  0.8203125 0.0078125 0  0.82421875 0.0078125 0  0.828125 0.0078125 0  0.83203125 0.0078125 0  0.8359375 0.0078125 0  0.83984375 0.0078125 0  0.84375 0.0078125 0  0.84765625 0.0078125 0  0.8515625 0.0078125 0  0.85546875 0.0078125 0  0.859375 0.0078125 0  0.86328125 0.0078125 0  0.8671875 0.0078125 0  0.87109375 0.0078125 0  0.875 0.0078125 0  0.87890625 0.0078125 0  0.8828125 0.0078125 0  0.88671875 0.0078125 0  0.890625 0.0078125 0  0.89453125 0.0078125 0  0.8984375 0.0078125 0  0.90234375 0.0078125 0  0.90625 0.0078125 0  0.91015625 0.0078125 0  0.9140625 0.0078125 0  0.91796875 0.0078125 0  0.921875 0.0078125 0  0.92578125 0.0078125 0  0.9296875 0.0078125 0  0.93359375 0.0078125 0  0.9375 0.0078125 0  0.94140625 0.0078125 0  0.9453125 0.0078125 0  0.94921875 0.0078125 0  0.953125 0.0078125 0  0.95703125 0.0078125 0  0.9609375 0.0078125 0  0.96484375 0.0078125 0  0.96875 0.0078125 0  0.97265625 0.0078125 0  0.9765625 0.0078125 0  0.98046875 0.0078125 0  0.984375 0.0078125 0  0.98828125 0.0078125 0  0.9921875 0.0078125 0  0.99609375 0.0078125 0  1 0.0078125 0  0.43359375 0.01171875 0  0.4375 0.01171875 0  0.44140625 0.01171875 0  0.4453125 0.01171875 0  0.44921875 0.01171875 0  0.453125 0.01171875 0  0.45703125 0.01171875 0  0.4609375 0.01171875 0  0.46484375 0.01171875 0  0.46875 0.01171875 0  0.47265625 0.01171875 0  0.4765625 0.01171875 0  0.48046875 0.01171875 0  0.484375 0.01171875 0  0.48828125 0.01171875 0  0.4921875 0.01171875 0  0.49609375 0.01171875 0  0.5 0.01171875 0  0.50390625 0.01171875 0  0.5078125 0.01171875 0  0.51171875 0.01171875 0  0.515625 0.01171875 0  0.51953125 0.01171875 0  0.5234375 0.01171875 0  0.52734375 0.01171875 0  0.53125 0.01171875 0  0.53515625 0.01171
[...]
<CellData  Scalars="f_11"> 
<DataArray  type="Float64"  Name="f_11"  format="ascii">3.9836342657622393e-03   7.9559158288880043e-03   3.9945579479854091e-03   7.9783324784136883e-03   4.0048564910066357e-03   7.9995353685208461e-03   4.0145779945210298e-03   8.0195355970802858e-03   4.0236878054861923e-03   8.0383479518284576e-03   4.0322048323811225e-03   8.0559543123784865e-03   4.0401056991372138e-03   8.0723527808239711e-03   4.0473976967665588e-03   8.0875262101343954e-03   4.0540700536219687e-03   8.1014714925755054e-03   4.0601395229486461e-03   8.1141942487482650e-03   4.0655908315865054e-03   8.1256955921140683e-03   4.0704388099203816e-03   8.1359754469394283e-03   4.0746662991181610e-03   8.1450314877251420e-03   4.0782866616121379e-03   8.1528591146238227e-03   4.0812848290329900e-03   8.1594573282881416e-03   4.0836746168801605e-03   8.1648257387203944e-03   4.0854415019177803e-03   8.1689629753073697e-03   4.0866131374855527e-03   8.1718820827567182e-03   4.0871626973961695e-03   8.1735838905226278e-03   4.0871168166430770e-03   8.1740702995509121e-03   4.0864515033410898e-03   8.1733398296392045e-03   4.0851553304783635e-03   8.1713590977812445e-03   4.0832440099370588e-03   8.1681323930007273e-03   4.0806907076621005e-03   8.1636488660221940e-03   4.0775270196474001e-03   8.1579127163120806e-03   4.0737683445095790e-03   8.1509711840940056e-03   4.0693957015238667e-03   8.1428207563284775e-03   4.0644100219688981e-03   8.1334434054207566e-03   4.0588014118853044e-03   8.1228301658337592e-03   4.0526091561352744e-03   8.1110104357376769e-03   4.0457952744235451e-03   8.0979855289651671e-03   4.0383776461279221e-03   8.0837353345195369e-03   4.0303407869231979e-03   8.0682622656159681e-03   4.0217099931890233e-03   8.0515759724513487e-03   4.0124630930079329e-03   8.0336777315810175e-03   4.0026220578352279e-03   8.0145712835271044e-03   3.9921653359638468e-03   7.9942550913033733e-03   3.9811220962809269e-03   7.9727367809020941e-03   3.9694692424266662e-03   7.9500226576838876e-03   3.9572432312679779e-03   7.9261269350698448e-03   3.9444112302490847e-03   7.9010515996744378e-03   3.9309946866219296e-03   7.8747847261117828e-03   3.9169760142987401e-03   7.8473315871634367e-03   3.9023599415117624e-03   7.8186790125830182e-03   3.8871528802410962e-03   7.7888379829519072e-03   3.8713734420429335e-03   7.7578336874752430e-03   3.8550079518821748e-03   7.7256712278721612e-03   3.8380626198366362e-03   7.6923429790490081e-03   3.8205328404567521e-03   7.6578505483458842e-03   3.8024399103429073e-03   7.6222106295320991e-03   3.7837677473548104e-03   7.5854284397617374e-03   3.7645338852664652e-03   7.5475054333732361e-03   3.7447243711330592e-03   7.5084451938775979e-03   3.7243621941161031e-03   7.4682567601304711e-03   3.7034311143357597e-03   7.4269468840677177e-03   3.6819532421670498e-03   7.3845218179938131e-03   3.6599115918184151e-03   7.3409862883864006e-03   3.6373316000622886e-03   7.2963483866090159e-03   3.6141953856637698e-03   7.2506160715703804e-03   3.5905254861102777e-03   7.2037939849061011e-03   3.5663054824448736e-03   7.1558881636333543e-03   3.5415573801387966e-03   7.1069042594252996e-03   3.5162675693840568e-03   7.0568507685341130e-03   3.4904582273148996e-03   7.0057361964342571e-03   3.4641137851112785e-03   6.9535671862697261e-03   3.4372585998644254e-03   6.9003526445886787e-03   3.4098774608091035e-03   6.8461013761985032e-03   3.3819929661995660e-03   6.7908209553355107e-03   3.3535897101636533e-03   6.7345185768818341e-03   3.3246889668032066e-03   6.6772001115843983e-03   3.2952788818984401e-03   6.6188749817758206e-03   3.2653818802765452e-03   6.5595537604763009e-03   3.2349832353484589e-03   6.4992441650121736e-03   3.2041072989164865e-03   6.4379558054983316e-03   3.1727401921088074e-03   6.3756991408779164e-03   3.1409050416611115e-03   6.3124834388593220e-03   3.1085872285144798e-03   6.2483172091966736e-03   3.0758061136029156e-03   6.1832051961718112e-03   3.0425531240148712e-03   6.1171581900667524e-03   3.0088502688633625e-03   6.0501891776089840e-03   2.9746844198315866e-03   5.9823080084307530e-03   2.9400766861981597e-03   5.9135221348372890e-03   2.9050182258117323e-03   5.8438438058496175e-03   2.8695318229704147e-03   5.7732870016357213e-03   2.8336048840268365e-03   5.7018619149587692e-03   2.7972520733710628e-03   5.6295706024441566e-03   2.7604706212328699e-03   5.5564249960657879e-03   2.7232802423297624e-03   5.4824420214415921e-03   2.6856704758841609e-03   5.4076309261758678e-03   2.6476527627202471e-03   5.3319927706859905e-03   2.6092333425341949e-03   5.2555451531883061e-03   2.5704307044502415e-03   5.1783127829232549e-03   2.5312349730264904e-03   5.1003043080726403e-03   2.4916548847143108e-03   5.0215185581340364e-03   2.4516920139764867e-03   4.9419658890624187e-03   2.4113672044660784e-03   4.8616687619017834e-03   2.3706724861443963e-03   4.7806400120651840e-03   2.3296265373484093e-03   4.6988903409162838e-03   2.2882219023517380e-03   4.6164309156481054e-03   2.2464799221546413e-03   4.5332757378071884e-03   2.2043933150993592e-03   4.4494388083264145e-03   2.1619814624258245e-03   4.3649322276323932e-03   2.1192376011910665e-03   4.2797686147433272e-03   2.0761808551515576e-03   4.1939603309783802e-03   2.0328066617973507e-03   4.1075219381036922e-03   1.9891352890566406e-03   4.0204691105611527e-03   1.9451597253979695e-03   3.9328151653040752e-03   1.9009008778811199e-03   3.8445739689466803e-03   1.8563531002635536e-03   3.7557607820400490e-03   1.8115371628120223e-03   3.6663907301955540e-03   1.7664463031811818e-03   3.5764778233316188e-03   1.7210977778860739e-03   3.4860325178480683e-03   1.6754898390484113e-03   3.3950703661409848e-03   1.6296416667676559e-03   3.3036087784356705e-03   1.5835483896355844e-03   3.2116620591097402e-03   1.5372284338647615e-03   3.1192437893966256e-03   1.4906787488384635e-03   3.0263693214682176e-03   1.4439183252621987e-03   2.9330547024284531e-03   1.3969420772354448e-03   2.8393136135437366e-03   1.3497639768075239e-03   2.7451550474014122e-03   1.3023842656523343e-03   2.6505932110472640e-03   1.2548191378217648e-03   2.5556445347420962e-03   1.2070647107624774e-03   2.4603213240167372e-03   1.1591359676498189e-03   2.3646346722580461e-03   1.1110299031526815e-03   2.2685965500597767e-03   1.0627618161862247e-03   2.1722192433702237e-03   1.0143255296162796e-03   2.0755118656407487e-03   9.6572981887356447e-04   1.9784770058705234e-03   9.1697313741283834e-04   1.8811218836692800e-03   8.6806514018108116e-04   1.7834545979800744e-03   8.1899900123546707e-04   1.6854779022817100e-03   7.6978077733077079e-04   1.5871910866358809e-03   7.2040271864640191e-04   1.4885925136787356e-03   6.7086956014854229e-04   1.3896790887108852e-03   6.2116712693241038e-04   1.2904413619366831e-03   5.7129049806707490e-04   1.1908602283522910e-03   5.2122567183892005e-04   1.0909167570887625e-03   4.7096410244894894e-04   9.9058839382272219e-04   4.2047899380430291e-04   8.8983979189952622e-04   3.6974752855951871e-04   7.8862133589606572e-04   3.1873094883221173e-04   6.8687145231038785e-04   2.6738744232167566e-04   5.8450957779082146e-04   2.1564216764916990e-04   4.8141907273421131e-04   1.6339357461332471e-04   3.7742357039940121e-04   1.1047457970008714e-04   2.7225447927046943e-04   5.6583473541061320e-05   1.6544308185073223e-04   1.4007068238903287e-06   5.6583817928057326e-05   1.5923552757542328e-02   1.5967728509928961e-02   1.9940666541070143e-02   1.6009486097500934e-02   1.9993904817515177e-02   1.6048817195866451e-02   2.0044089217988715e-02   1.6085799976937858e-02   2.0091312196306364e-02   1.6120351737878298e-02   2.0135537598030120e-02   1.6152488180543989e-02   2.0176737255879283e-02   1.6182171603782925e-02   2.0214886083355147e-02   1.6209403671303108e-02   2.0249974852498701e-02   1.6234182436586159e-02   2.0281990365483917e-02   1.6256530276788778e-02   2.0310962338766819e-02   1.6276424523246132e-02   2.0336874533772233e-02   1.6293877297280573e-02   2.0359733635018140e-02   1.6308863817817387e-02   2.0379516749022775e-02   1.6321400226528827e-02   2.0396233391858299e-02   1.6331468683951942e-02   2.0409869677701555e-02   1.6339093315427291e-02   2.0420446855842423e-02   1.6344263019670919e-02   2.0427951699839943e-02   1.6347014163109786e-02   2.0432423237704334e-02   1.6347316423042088e-02   2.0433840039936674e-02   1.6345172815554459e-02   2.0432199018539241e-02   1.6340545764629625e-02   2.0427475387308981e-02   1.6333404173598569e-02   2.0419613685152917e-02   1.6323766433618356e-02   2.0408632936562528e-02   1.6311657064126104e-02   2.0394552641641497e-02   1.6297112945238446e-02   2.0377413117892953e-02   1.6280166538793970e-02   2.0357255838196156e-02   1.6260744132163007e-02   2.0334042143965392e-02   1.6238882019081458e-02   2.0307762521965769e-02   1.6214576092229434e-02   2.0278418847016390e-02   1.6187872355531464e-02   2.0246061578645232e-02   1.6158704964670732e-02   2.0210651705874733e-02   1.6127111411025352e-02   2.0172196446150256e-02   1.6093077724584393e-02   2.0130691423123074e-02   1.6056636156717839e-02   2.0086167023003566e-02   1.6017766584079343e-02   2.0038615987370317e-02   1.5976491544318107e-02   1.9988053001632245e-02   1.5932799391872556e-02   1.9934463599721463e-02   1.5886744642963840e-02   1.9877905872082675e-02   1.5838307626025994e-02   1.9818371294444252e-02   1.5787518387870843e-02   1.9755891250864643e-02   1.5734339130070309e-02   1.9690433201840073e-02   1.5678784569565039e-02   1.9622002364040797e-02   1.5620832056968022e-02   1.9550581781053719e-02   1.5560527002440450e-02   1.9476202094192561e-02   1.5497888704911604e-02   1.9398896844406828e-02   1.5432941116826046e-02   1.9318698277127771e-02   1.5365657052788879e-02   1.9235591844847570e-02   1.5296060515592982e-02   1.9149586592796294e-02   1.5224158358535559e-02   1.9060690470467687e-02   1.5149986048831195e-02   1.8968945184081355e-02   1.5073523878646527e-02   1.8874343739793492e-02   1.4994802020428313e-02   1.8776909097659066e-02   1.4913813555130591e-02   1.8676637935866994e-02   1.4830601586990802e-02   1.8573573637953266e-02   1.4745147431562687e-02   1.8467711382122772e-02   1.4657490196546354e-02   1.8359079268913898e-02   1.4567615679387226e-02   1.8247679362736496e-02   1.4475571595549240e-02   1.8133551072793644e-02   1.4381335461158169e-02   1.8016692034149604e-02   1.4284949348789835e-02   1.7897130596434444e-02   1.4186398774535192e-02   1.7774863422311264e-02   1.4085728423158063e-02   1.7649931707487927e-02   1.3982926248089436e-02   1.7522337351926032e-02   1.3878032413028660e-02   1.7392115531520518e-02   1.3771037094463975e-02   1.7259265635667768e-02   1.3661988322276346e-02   1.7123832292358716e-02   1.3550872615700928e-02   1.6985818300674579e-02   1.3437727249947672e-02   1.6845255469512758e-02   1.3322542754746798e-02   1.6702143131736163e-02   1.3205364772744648e-02   1.6556523441784422e-02   1.3086185718189773e-02   1.6408402606211750e-02   1.2965047246857743e-02   1.6257818830458258e-02   1.2841942248264876e-02   1.6104774621673860e-02   1.2716920936624685e-02   1.5949317333160858e-02   1.2589973869232288e-02   1.5791454147894627e-02   1.2461138348330124e-02   1.5631218275413816e-02   1.2330407024923785e-02   1.5468611766295437e-02   1.2197824737924811e-02   1.5303676677164547e-02   1.2063393270347673e-02   1.5136426102546905e-02   1.1927150291557340e-02   1.4966898411468567e-02   1.1789093142144491e-02   1.4795099409041806e-02   1.1649271532905561e-02   1.4621077004124305e-02   1.1507687545631012e-02   1.4444847965485281e-02   1.1364376437848676e-02   1.4266448245884402e-02   1.1219332472393886e-02   1.4085881993962920e-02   1.1072597749665895e-02   1.3903187343570489e-02   1.0924186958485240e-02   1.3718388906434587e-02   1.0774119955695480e-02   1.3531514721068704e-02   1.0622404628303958e-02   1.3342571814843723e-02   1.0469097938448220e-02   1.3151617851109569e-02   1.0314214638588726e-02   1.2958688389869350e-02   1.0157786043356459e-02   1.2763814663628170e-02   9.9998048443305960e-03   1.2567003021659476e-02   9.8403066261399143e-03   1.2368281610022163e-02   9.6793164737928108e-03   1.2167680224309963e-02   9.5168800566444462e-03   1.1965254788101329e-02   9.3529986511680721e-03   1.1761020730406599e-02   9.1877134803571795e-03   1.1555017306102706e-02   9.0210335008981905e-03   1.1347262099792518e-02   8.8530076901288078e-03   1.1137806434714379e-02   8.6836405726717324e-03   1.0926670515084471e-02   8.5129736581734741e-03   1.0713894939246448e-02   8.3410166485106754e-03   1.0499499066239341e-02   8.1678181496256646e-03   1.0283533510205759e-02   7.9933883219938558e-03   1.0066022209523405e-02   7.8177724085167610e-03   9.8470118613459140e-03   7.6409798403083099e-03   9.6265229704208394e-03   7.4630622853332695e-03   9.4046083926832488e-03   7.2840293194975508e-03   9.1812933058113312e-03   7.1039235231490274e-03   8.9566215727161381e-03   6.9227543709565907e-03   8.7306139472291405e-03   6.7405694210115183e-03   8.5033187267845936e-03   6.5573848129529119e-03   8.2747649239681489e-03   6.3732448214332037e-03   8.0450004058473957e-03   6.1881616734938234e-03   7.8140489264622755e-03   6.0021837203297259e-03   7.5819605915177701e-03   5.8153247779800044e-03   7.3487631935780515e-03   5.6276240187920585e-03   7.1144988753067450e-03   5.4390911160297683e-03   6.8791886109120680e-03   5.2497672583507963e-03   6.6428741480493861e-03   5.0596696491759310e-03   6.4055834797877758e-03   4.8688354388056240e-03   6.1673584177642489e-03   4.6772742322901831e-03   5.9282184349495207e-03   4.4850247562612296e-03   5.6882037821223532e-03   4.2920953979105302e-03   5.4473343105400874e-03   4.0985128922169413e-03   5.2056390426210878e-03   3.9042766695208328e-03   4.9631262863183674e-03   3.7094102679325809e-03   4.7198179169675256e-03   3.5139169884505880e-03   4.4757239591984854e-03   3.3178108052762815e-03   4.2308604781917981e-03   3.1210805805706623e-03   3.9852211954522201e-03   2.9237333537371194e-03   3.7388109375026003e-03   2.7257487362963365e-03   3.4916130659049575e-03   2.5271126714998520e-03   3.2436103907140319e-03   2.3277820618208944e-03   2.9947601523232265e-03   2.1277245491861680e-03   2.7450200151093464e-03   1.9268818724302848e-03   2.4943269611496454e-03   1.7251861035712892e-03   2.2426039094830289e-03   1.5225297583638089e-03   1.9897337428831968e-03   1.3187930113447578e-03   1.7355775231100484e-03   1.1137985464003716e-03   1.4799414896045173e-03   9.0731202976989593e-04   1.2225693651393889e-03   6.9897597385105634e-04   9.6308751104141064e-04   4.8826414146479992e-04   7.0095563853084871e-04   2.7430326349864520e-04   4.3534442418352695e-04   5.6583473538570135e-05   1.6544331377740701e-04   2.7940423540630255e-02   2.8013538716650022e-02   3.1987118639469750e-02   2.8082429884122163e-02   3.2067460608879501e-02   2.8147101607971202e-02   3.2142947352199108e-02   2.8207609338535784e-02   3.2213661498588460e-02   2.8263852240754943e-02   3.2279538846808925e-02   2.8315835956646388e-02   3.2340553357043722e-02   2.8363533056990849e-02   3.2396679615812343e-02   2.8406941081761967e-02   3.2447912524043276e-02   2.8446069482320448e-02   3.2494240225797590e-02   2.8480931804752876e-02   3.2535694618504578e-02   2.8511500709273899e-02   3.2572248793204951e-02   2.8537773365699938e-02   3.2603900910792447e-02   2.8559738139026531e-02   3.2630625101800162e-02   2.8577413490019968e-02   3.2652448704127618e-02   2.8590789612871707e-02   3.2669355191664140e-02   2.8599893268948798e-02   3.2681377578669395e-02   2.8604710919267834e-02   3.2688492146857755e-02   2.8605271654778441e-02   3.2690733297208889e-02   2.8601521556680033e-02   3.2688070446088971e-02   2.8593430065543116e-02   3.2680455423276626e-02   2.8580982847102816e-02   3.2667876146036917e-02   2.8564175035989230e-02   3.2650314077682568e-02   2.8543058160696053e-02   3.2627814129901386e-02   2.8517686478331822e-02   3.2600436910576805e-02   2.8488052975779093e-02   3.2568181113695707e-02   2.8454139484163407e-02   3.2531061333991439e-02   2.8415928300789445e-02   3.2489007574494903e-02   2.8373459632603546e-02   3.2442088913608752e-02   2.8326722431979763e-02   3.2390277559975499e-02   2.8275733271227194e-02   3.2333615916265650e-02   2.8220472735227310e-02   3.2272063766491513e-02   2.8160968671044919e-02   3.2205664672747103e-02   2.8097225743672263e-02   3.2134413384217304e-02   2.8029261748470959e-02   3.2058339498030462e-02   2.7957066189285097e-02   3.1977424518824508e-02   2.7880669097071091e-02   3.1891709252097403e-02   2.7800092517366211e-02   3.1801190542021275e-02   2.7715386644442081e-02   3.1705935174039919e-02   2.7626521875651917e-02   3.1605942154227934e-02   2.7533498990498898e-02   3.1501203870202901e-02   2.7436301519437819e-02   3.1391702857202365e-02   2.7334924140232992e-02   3.1277433466219397e-02   2.7229427023664644e-02   3.1158407046493097e-02   2.7119868319203766e-02   3.1034731426298225e-02   2.7006242290959194e-02   3.0906412172954433e-02   2.6888553343879087e-02   3.0773454560034004e-02   2.6766810223302046e-02   3.0635850053662546e-02   2.6641042282208090e-02   3.0493647523816930e-02   2.6511269919478938e-02   3.0346846353588024e-02   2.6377524428976565e-02   3.0195499592961618e-02   2.6239802317857826e-02   3.0039602610546442e-02   2.6098136360577753e-02   2.9879198425404083e-02   2.5952545175368730e-02   2.9714288519985688e-02   2.5803064592046759e-02   2.9544931259065932e-02   2.5649698725333944e-02   2.9371121109777094e-02   2.5492480995981802e-02   2.9192908459426622e-02   2.5331427028259548e-02   2.9010290506973933e-02   2.5166579340540524e-02   2.8823331971612902e-02   2.4997938310047794e-02   2.8632030328948042e-02   2.4825537086119866e-02   2.8436430738249741e-02   2.4649395430822320e-02   2.8236536174954262e-02   2.4469554699863307e-02   2.8032409508225581e-02   2.4286025799537619e-02   2.7824053878041835e-02   2.4098846988622937e-02   2.7611524048431545e-02   2.3908038644593343e-02   2.7394824814163644e-02   2.3713647410626551e-02   2.7174023799298092e-02   2.3515679189975117e-02   2.6949125460982670e-02   2.3314169444335821e-02   2.6720177298108830e-02   2.3109142368300806e-02   2.6487188008872724e-02   2.2900642718764009e-02   2.6250223826947007e-02   2.2688687107325217e-02   2.6009293991613905e-02   2.2473316670152021e-02   2.5764457331677895e-02   2.2254557547401663e-02   2.5515724401098856e-02   2.2032460650159191e-02   2.5263167667714866e-02   2.1807034741042258e-02   2.5006796851357632e-02   2.1578316758347180e-02   2.4746659820064989e-02   2.1346336639623174e-02   2.4482771963872132e-02   2.1111142281754185e-02   2.4215201573909242e-02   2.0872755332104448e-02   2.3943967019931504e-02   2.0631215264630579e-02   2.3669123673506702e-02   2.0386560708238400e-02   2.3390693264546476e-02   2.0138847269923169e-02   2.3108755056589620e-02   1.9888089092153904e-02   2.2823328240982901e-02   1.9634319356712438e-02   2.2534454631742366e-02   1.9377574772157027e-02   2.2242156739406362e-02   1.9117908105532960e-02   2.1946503847472248e-02   1.8855333585694984e-02   2.1647524549053519e-02   1.8589891389406171e-02   2.1345258701543947e-02   1.8321644769880956e-02   2.1039751425286111e-02   1.8050664811441946e-02   2.0731101063265648e-02   1.7776950395246592e-02   2.0419326196965615e-02   1.7500540267653034e-02   2.0104458521759173e-02   1.7221472605667774e-02   1.9786532382380626e-02   1.6939802123062467e-02   1.9465618927550339e-02   1.6655576296008376e-02   1.9141759399844239e-02   1.6368844811639739e-02   1.8815025304748070e-02   1.6079638805100275e-02   1.8485444024342275e-02   1.5788009091939073e-02   1.8153081860572809e-02   1.5493998088436952e-02   1.7817972062929340e-02   1.5197663791318743e-02   1.7480192530496211e-02   1.4899037704780143e-02   1.7139776628096754e-02   1.4598172115181352e-02   1.6796789489186857e-02   1.4295112837481408e-02   1.6451269045086602e-02   1.3989919449912852e-02   1.6103294748655409e-02   1.36826298873954