<?xml version="1.0"?>
<VTKFile type="UnstructuredGrid"  version="0.1" >
<UnstructuredGrid>
<Piece  NumberOfPoints="105" NumberOfCells="80">
<Points>
<DataArray  type="Float64"  NumberOfComponents="3"  format="ascii">0 0 0  0.5 0 0  0.5 0.5 0  0 0.5 0  1 0 0  1 0.5 0  1 1 0  0.5 1 0  0 1 0  1.5 0 0  1.5 0.5 0  1.5 1 0  1.5 1.5 0  1 1.5 0  0.5 1.5 0  0 1.5 0  2 0 0  2 0.5 0  2 1 0  2 1.5 0  2 2 0  1.5 2 0  1 2 0  0.5 2 0  0 2 0  2.5 0 0  2.5 0.5 0  2.5 1 0  2.5 1.5 0  2.5 2 0  3 0 0  3 0.5 0  3 1 0  3 1.5 0  3 2 0  3.5 0 0  3.5 0.5 0  3.5 1 0  3.5 1.5 0  3.5 2 0  4 0 0  4 0.5 0  4 1 0  4 1.5 0  4 2 0  4.5 0 0  4.5 0.5 0  4.5 1 0  4.5 1.5 0  4.5 2 0  5 0 0  5 0.5 0  5 1 0  5 1.5 0  5 2 0  5.5 0 0  5.5 0.5 0  5.5 1 0  5.5 1.5 0  5.5 2 0  6 0 0  6 0.5 0  6 1 0  6 1.5 0  6 2 0  6.5 0 0  6.5 0.5 0  6.5 1 0  6.5 1.5 0  6.5 2 0  7 0 0  7 0.5 0  7 1 0  7 1.5 0  7 2 0  7.5 0 0  7.5 0.5 0  7.5 1 0  7.5 1.5 0  7.5 2 0  8 0 0  8 0.5 0  8 1 0  8 1.5 0  8 2 0  8.5 0 0  8.5 0.5 0  8.5 1 0  8.5 1.5 0  8.5 2 0  9 0 0  9 0.5 0  9 1 0  9 1.5 0  9 2 0  9.5 0 0  9.5 0.5 0  9.5 1 0  9.5 1.5 0  9.5 2 0  10 0 0  10 0.5 0  10 1 0  10 1.5 0  10 2 0  </DataArray>
</Points>
<Cells>
<DataArray  type="Int32"  Name="connectivity"  format="ascii">0 1 2 3  1 4 5 2  4 9 10 5  9 16 17 10  16 25 26 17  25 30 31 26  30 35 36 31  35 40 41 36  40 45 46 41  45 50 51 46  50 55 56 51  55 60 61 56  60 65 66 61  65 70 71 66  70 75 76 71  75 80 81 76  80 85 86 81  85 90 91 86  90 95 96 91  95 100 101 96  3 2 7 8  2 5 6 7  5 10 11 6  10 17 18 11  17 26 27 18  26 31 32 27  31 36 37 32  36 41 42 37  41 46 47 42  46 51 52 47  51 56 57 52  56 61 62 57  61 66 67 62  66 71 72 67  71 76 77 72  76 81 82 77  81 86 87 82  86 91 92 87  91 96 97 92  96 101 102 97  8 7 14 15  7 6 13 14  6 11 12 13  11 18 19 12  18 27 28 19  27 32 33 28  32 37 38 33  37 42 43 38  42 47 48 43  47 52 53 48  52 57 58 53  57 62 63 58  62 67 68 63  67 72 73 68  72 77 78 73  77 82 83 78  82 87 88 83  87 92 93 88  92 97 98 93  97 102 103 98  15 14 23 24  14 13 22 23  13 12 21 22  12 19 20 21  19 28 29 20  28 33 34 29  33 38 39 34  38 43 44 39  43 48 49 44  48 53 54 49  53 58 59 54  58 63 64 59  63 68 69 64  68 73 74 69  73 78 79 74  78 83 84 79  83 88 89 84  88 93 94 89  93 98 99 94  98 103 104 99  </DataArray>
<DataArray  type="Int32"  Name="offsets"  format="ascii">4 8 12 16 20 24 28 32 36 40 44 48 52 56 60 64 68 72 76 80 84 88 92 96 100 104 108 112 116 120 124 128 132 136 140 144 148 152 156 160 164 168 172 176 180 184 188 192 196 200 204 208 212 216 220 224 228 232 236 240 244 248 252 256 260 264 268 272 276 280 284 288 292 296 300 304 308 312 316 320 </DataArray>
<DataArray  type="Int8"  Name="types"  format="ascii">70 70 70 70 70 70 70 70 70 70 70 70 70 70 70 70 70 70 70 70 70 70 70 70 70 70 70 70 70 70 70 70 70 70 70 70 70 70 70 70 70 70 70 70 70 70 70 70 70 70 70 70 70 70 70 70 70 70 70 70 70 70 70 70 70 70 70 70 70 70 70 70 70 70 70 70 70 70 70 70 </DataArray>
</Cells>
<PointData  Vectors="u"> 
<DataArray  type="Float64"  Name="u"  NumberOfComponents="3" format="ascii">0.0000000000000000e+00 0.0000000000000000e+00 8.5758151323813565e-23  0.0000000000000000e+00 0.0000000000000000e+00 1.5448815133836367e-06  0.0000000000000000e+00 0.0000000000000000e+00 -1.1206518251620423e-21  0.0000000000000000e+00 0.0000000000000000e+00 -6.2925840731028621e-23  0.0000000000000000e+00 0.0000000000000000e+00 -1.2678195830996457e-20  0.0000000000000000e+00 0.0000000000000000e+00 -2.5706966368610507e-05  0.0000000000000000e+00 0.0000000000000000e+00 7.7862401427090168e-06  0.0000000000000000e+00 0.0000000000000000e+00 -1.1335711714729402e-06  0.0000000000000000e+00 0.0000000000000000e+00 8.1049279009072525e-22  0.0000000000000000e+00 0.0000000000000000e+00 -1.0869945323928523e-04  0.0000000000000000e+00 0.0000000000000000e+00 -6.8276686104317235e-05  0.0000000000000000e+00 0.0000000000000000e+00 -6.6322087879518271e-05  0.0000000000000000e+00 0.0000000000000000e+00 -1.6008304233733166e-20  0.0000000000000000e+00 0.0000000000000000e+00 1.3535323561290237e-05  0.0000000000000000e+00 0.0000000000000000e+00 1.5734111281229212e-05  0.0000000000000000e+00 0.0000000000000000e+00 1.8914213858605320e-21  0.0000000000000000e+00 0.0000000000000000e+00 -2.4091910130187526e-04  0.0000000000000000e+00 0.0000000000000000e+00 -2.3918228649636930e-04  0.0000000000000000e+00 0.0000000000000000e+00 -1.7501325134483409e-04  0.0000000000000000e+00 0.0000000000000000e+00 -1.6818617434821563e-04  0.0000000000000000e+00 0.0000000000000000e+00 -1.0506268887818429e-04  0.0000000000000000e+00 0.0000000000000000e+00 -7.5655543505488018e-06  0.0000000000000000e+00 0.0000000000000000e+00 5.4993406299121219e-05  0.0000000000000000e+00 0.0000000000000000e+00 1.8338707313019132e-05  0.0000000000000000e+00 0.0000000000000000e+00 1.8914213858605320e-21  0.0000000000000000e+00 0.0000000000000000e+00 -4.9830096291168173e-04  0.0000000000000000e+00 0.0000000000000000e+00 -4.3544932591057709e-04  0.0000000000000000e+00 0.0000000000000000e+00 -4.2906033768619556e-04  0.0000000000000000e+00 0.0000000000000000e+00 -3.6410718334628522e-04  0.0000000000000000e+00 0.0000000000000000e+00 -3.5711379861455610e-04  0.0000000000000000e+00 0.0000000000000000e+00 -7.6826905822912229e-04  0.0000000000000000e+00 0.0000000000000000e+00 -7.6173789953004557e-04  0.0000000000000000e+00 0.0000000000000000e+00 -6.9781809019845082e-04  0.0000000000000000e+00 0.0000000000000000e+00 -6.9060390868821780e-04  0.0000000000000000e+00 0.0000000000000000e+00 -6.2615055581126703e-04  0.0000000000000000e+00 0.0000000000000000e+00 -1.1561697137955668e-03  0.0000000000000000e+00 0.0000000000000000e+00 -1.0925864177177664e-03  0.0000000000000000e+00 0.0000000000000000e+00 -1.0854086523236230e-03  0.0000000000000000e+00 0.0000000000000000e+00 -1.0215105201448220e-03  0.0000000000000000e+00 0.0000000000000000e+00 -1.0140400942695660e-03  0.0000000000000000e+00 0.0000000000000000e+00 -1.5390074854281831e-03  0.0000000000000000e+00 0.0000000000000000e+00 -1.5316572104211639e-03  0.0000000000000000e+00 0.0000000000000000e+00 -1.4681363073153098e-03  0.0000000000000000e+00 0.0000000000000000e+00 -1.4606218070111500e-03  0.0000000000000000e+00 0.0000000000000000e+00 -1.3969737431907244e-03  0.0000000000000000e+00 0.0000000000000000e+00 -2.0206903794570243e-03  0.0000000000000000e+00 0.0000000000000000e+00 -1.9573714584609474e-03  0.0000000000000000e+00 0.0000000000000000e+00 -1.9497714014712079e-03  0.0000000000000000e+00 0.0000000000000000e+00 -1.8864043309041135e-03  0.0000000000000000e+00 0.0000000000000000e+00 -1.8787236054103641e-03  0.0000000000000000e+00 0.0000000000000000e+00 -2.4814575400759109e-03  0.0000000000000000e+00 0.0000000000000000e+00 -2.4737301093714398e-03  0.0000000000000000e+00 0.0000000000000000e+00 -2.4105588814819640e-03  0.0000000000000000e+00 0.0000000000000000e+00 -2.4027940156092901e-03  0.0000000000000000e+00 0.0000000000000000e+00 -2.3396115253626637e-03  0.0000000000000000e+00 0.0000000000000000e+00 -3.0256080931498576e-03  0.0000000000000000e+00 0.0000000000000000e+00 -2.9625778901498792e-03  0.0000000000000000e+00 0.0000000000000000e+00 -2.9547245172983853e-03  0.0000000000000000e+00 0.0000000000000000e+00 -2.8917015102851600e-03  0.0000000000000000e+00 0.0000000000000000e+00 -2.8838361374930411e-03  0.0000000000000000e+00 0.0000000000000000e+00 -3.5364505964531655e-03  0.0000000000000000e+00 0.0000000000000000e+00 -3.5285110316161483e-03  0.0000000000000000e+00 0.0000000000000000e+00 -3.4656062464147324e-03  0.0000000000000000e+00 0.0000000000000000e+00 -3.4576703690600580e-03  0.0000000000000000e+00 0.0000000000000000e+00 -3.3947815985941208e-03  0.0000000000000000e+00 0.0000000000000000e+00 -4.1189840918538622e-03  0.0000000000000000e+00 0.0000000000000000e+00 -4.0561722115464473e-03  0.0000000000000000e+00 0.0000000000000000e+00 -4.0481737323334139e-03  0.0000000000000000e+00 0.0000000000000000e+00 -3.9853824799432769e-03  0.0000000000000000e+00 0.0000000000000000e+00 -3.9773965416715724e-03  0.0000000000000000e+00 0.0000000000000000e+00 -4.6590435714655093e-03  0.0000000000000000e+00 0.0000000000000000e+00 -4.6509970394742247e-03  0.0000000000000000e+00 0.0000000000000000e+00 -4.5882763990878032e-03  0.0000000000000000e+00 0.0000000000000000e+00 -4.5802488753969523e-03  0.0000000000000000e+00 0.0000000000000000e+00 -4.5175507577341050e-03  0.0000000000000000e+00 0.0000000000000000e+00 -5.2625533993739147e-03  0.0000000000000000e+00 0.0000000000000000e+00 -5.1998849490990659e-03  0.0000000000000000e+00 0.0000000000000000e+00 -5.1918209860978013e-03  0.0000000000000000e+00 0.0000000000000000e+00 -5.1291798831921333e-03  0.0000000000000000e+00 0.0000000000000000e+00 -5.1211380056862725e-03  0.0000000000000000e+00 0.0000000000000000e+00 -5.8173428596004374e-03  0.0000000000000000e+00 0.0000000000000000e+00 -5.8092476462109676e-03  0.0000000000000000e+00 0.0000000000000000e+00 -5.7466356252158053e-03  0.0000000000000000e+00 0.0000000000000000e+00 -5.7385694215902278e-03  0.0000000000000000e+00 0.0000000000000000e+00 -5.6759840609831849e-03  0.0000000000000000e+00 0.0000000000000000e+00 -6.4303183518811015e-03  0.0000000000000000e+00 0.0000000000000000e+00 -6.3677150792137661e-03  0.0000000000000000e+00 0.0000000000000000e+00 -6.3596147086440657e-03  0.0000000000000000e+00 0.0000000000000000e+00 -6.2970453726995277e-03  0.0000000000000000e+00 0.0000000000000000e+00 -6.2889744416346725e-03  0.0000000000000000e+00 0.0000000000000000e+00 -6.9908040103020515e-03  0.0000000000000000e+00 0.0000000000000000e+00 -6.9826680578063587e-03  0.0000000000000000e+00 0.0000000000000000e+00 -6.9200851498469581e-03  0.0000000000000000e+00 0.0000000000000000e+00 -6.9119859218210126e-03  0.0000000000000000e+00 0.0000000000000000e+00 -6.8494374530594119e-03  0.0000000000000000e+00 0.0000000000000000e+00 -7.6066444342047712e-03  0.0000000000000000e+00 0.0000000000000000e+00 -7.5440384156961228e-03  0.0000000000000000e+00 0.0000000000000000e+00 -7.5358990309571548e-03  0.0000000000000000e+00 0.0000000000000000e+00 -7.4733329959878018e-03  0.0000000000000000e+00 0.0000000000000000e+00 -7.4652325491804871e-03  0.0000000000000000e+00 0.0000000000000000e+00 -8.1682893630084605e-03  0.0000000000000000e+00 0.0000000000000000e+00 -8.1601269264560718e-03  0.0000000000000000e+00 0.0000000000000000e+00 -8.0975262729206209e-03  0.0000000000000000e+00 0.0000000000000000e+00 -8.0893918879047233e-03  0.0000000000000000e+00 0.0000000000000000e+00 -8.0268307047841447e-03  </DataArray> 
</PointData> 
</Piece>
</UnstructuredGrid>
</VTKFile>