<?xml version="1.0"?>
<VTKFile type="UnstructuredGrid"  version="0.1" >
<UnstructuredGrid>
<Piece  NumberOfPoints="60" NumberOfCells="40">
<Points>
<DataArray  type="Float64"  NumberOfComponents="3"  format="ascii">5 0 0  4.5 0 0  4.5 0.5 0  5 0.5 0  4 0 0  4 0.5 0  4.5 1 0  4 1 0  5 1 0  3.5 0 0  3.5 0.5 0  3.5 1 0  4 1.5 0  4.5 1.5 0  5 1.5 0  3.5 1.5 0  3 0 0  3 0.5 0  3 1 0  3 1.5 0  3.5 2 0  4 2 0  4.5 2 0  5 2 0  3 2 0  2.5 0 0  2.5 0.5 0  2.5 1 0  2.5 1.5 0  2.5 2 0  2 0 0  2 0.5 0  2 1 0  2 1.5 0  2 2 0  1.5 0 0  1.5 0.5 0  1.5 1 0  1.5 1.5 0  1.5 2 0  1 0 0  1 0.5 0  1 1 0  1 1.5 0  1 2 0  0.5 0 0  0.5 0.5 0  0.5 1 0  0.5 1.5 0  0.5 2 0  0 0 0  0 0.5 0  0 1 0  0 1.5 0  0 2 0  5.5 0 0  5.5 0.5 0  5.5 1 0  5.5 1.5 0  5.5 2 0  </DataArray>
</Points>
<Cells>
<DataArray  type="Int32"  Name="connectivity"  format="ascii">50 45 46 51  45 40 41 46  40 35 36 41  35 30 31 36  30 25 26 31  25 16 17 26  16 9 10 17  9 4 5 10  4 1 2 5  1 0 3 2  51 46 47 52  46 41 42 47  41 36 37 42  36 31 32 37  31 26 27 32  26 17 18 27  17 10 11 18  10 5 7 11  5 2 6 7  2 3 8 6  52 47 48 53  47 42 43 48  42 37 38 43  37 32 33 38  32 27 28 33  27 18 19 28  18 11 15 19  11 7 12 15  7 6 13 12  6 8 14 13  53 48 49 54  48 43 44 49  43 38 39 44  38 33 34 39  33 28 29 34  28 19 24 29  19 15 20 24  15 12 21 20  12 13 22 21  13 14 23 22  0 55 56 3  3 56 57 8  8 57 58 14  14 58 59 23  </DataArray>
<DataArray  type="Int32"  Name="offsets"  format="ascii">4 8 12 16 20 24 28 32 36 40 44 48 52 56 60 64 68 72 76 80 84 88 92 96 100 104 108 112 116 120 124 128 132 136 140 144 148 152 156 160 </DataArray>
<DataArray  type="Int8"  Name="types"  format="ascii">70 70 70 70 70 70 70 70 70 70 70 70 70 70 70 70 70 70 70 70 70 70 70 70 70 70 70 70 70 70 70 70 70 70 70 70 70 70 70 70 </DataArray>
</Cells>
<PointData  Vectors="u"> 
<DataArray  type="Float64"  Name="u"  NumberOfComponents="3" format="ascii">0.0000000000000000e+00 0.0000000000000000e+00 -7.8171712836796862e-04  0.0000000000000000e+00 0.0000000000000000e+00 -5.4938742153999944e-04  0.0000000000000000e+00 0.0000000000000000e+00 -5.7478658460616793e-04  0.0000000000000000e+00 0.0000000000000000e+00 -7.9366656212935158e-04  0.0000000000000000e+00 0.0000000000000000e+00 -3.4755141132009076e-04  0.0000000000000000e+00 0.0000000000000000e+00 -3.6274551455457748e-04  0.0000000000000000e+00 0.0000000000000000e+00 -5.8903057460066538e-04  0.0000000000000000e+00 0.0000000000000000e+00 -3.9038023279472486e-04  0.0000000000000000e+00 0.0000000000000000e+00 -8.1647998342855186e-04  0.0000000000000000e+00 0.0000000000000000e+00 -1.6663536336200893e-04  0.0000000000000000e+00 0.0000000000000000e+00 -1.9253154684780623e-04  0.0000000000000000e+00 0.0000000000000000e+00 -2.0929857086368969e-04  0.0000000000000000e+00 0.0000000000000000e+00 -4.0711276490870203e-04  0.0000000000000000e+00 0.0000000000000000e+00 -6.1555305871249311e-04  0.0000000000000000e+00 0.0000000000000000e+00 -8.2803100202885572e-04  0.0000000000000000e+00 0.0000000000000000e+00 -2.4007700203022749e-04  0.0000000000000000e+00 0.0000000000000000e+00 -4.5389751662228820e-05  0.0000000000000000e+00 0.0000000000000000e+00 -5.6789636996191540e-05  0.0000000000000000e+00 0.0000000000000000e+00 -8.4236523839213568e-05  0.0000000000000000e+00 0.0000000000000000e+00 -1.0189979020402687e-04  0.0000000000000000e+00 0.0000000000000000e+00 -2.5831339092688915e-04  0.0000000000000000e+00 0.0000000000000000e+00 -4.3622034444901198e-04  0.0000000000000000e+00 0.0000000000000000e+00 -6.3067457708032961e-04  0.0000000000000000e+00 0.0000000000000000e+00 -8.5235853912485370e-04  0.0000000000000000e+00 0.0000000000000000e+00 -1.3198128498854102e-04  0.0000000000000000e+00 0.0000000000000000e+00 -5.6720954965350374e-21  0.0000000000000000e+00 0.0000000000000000e+00 -7.8285245416978543e-21  0.0000000000000000e+00 0.0000000000000000e+00 -1.3028270401904913e-20  0.0000000000000000e+00 0.0000000000000000e+00 -2.4280070432981941e-05  0.0000000000000000e+00 0.0000000000000000e+00 -3.8832872244148535e-05  0.0000000000000000e+00 0.0000000000000000e+00 -1.4287172993116651e-06  0.0000000000000000e+00 0.0000000000000000e+00 1.7135503211965367e-05  0.0000000000000000e+00 0.0000000000000000e+00 1.9752155535525448e-05  0.0000000000000000e+00 0.0000000000000000e+00 1.9532877466226742e-05  0.0000000000000000e+00 0.0000000000000000e+00 1.2191873121266181e-06  0.0000000000000000e+00 0.0000000000000000e+00 1.1440499066121275e-05  0.0000000000000000e+00 0.0000000000000000e+00 1.4915248037065280e-05  0.0000000000000000e+00 0.0000000000000000e+00 2.3823341964516801e-05  0.0000000000000000e+00 0.0000000000000000e+00 2.0836742717071559e-05  0.0000000000000000e+00 0.0000000000000000e+00 2.0367022190353105e-05  0.0000000000000000e+00 0.0000000000000000e+00 5.5882355440147082e-06  0.0000000000000000e+00 0.0000000000000000e+00 1.2727678157580512e-05  0.0000000000000000e+00 0.0000000000000000e+00 1.3177563660145923e-05  0.0000000000000000e+00 0.0000000000000000e+00 1.6141433832100340e-05  0.0000000000000000e+00 0.0000000000000000e+00 1.2774820044643842e-05  0.0000000000000000e+00 0.0000000000000000e+00 2.8374940983383095e-06  0.0000000000000000e+00 0.0000000000000000e+00 2.9936248464075403e-06  0.0000000000000000e+00 0.0000000000000000e+00 5.2971516690837163e-06  0.0000000000000000e+00 0.0000000000000000e+00 4.2564690620367702e-06  0.0000000000000000e+00 0.0000000000000000e+00 5.1745890482202146e-06  0.0000000000000000e+00 0.0000000000000000e+00 3.2369212558923905e-22  0.0000000000000000e+00 0.0000000000000000e+00 4.6023054897599545e-22  0.0000000000000000e+00 0.0000000000000000e+00 5.3033248521130878e-22  0.0000000000000000e+00 0.0000000000000000e+00 5.2352889302925576e-22  0.0000000000000000e+00 0.0000000000000000e+00 5.2352889302925576e-22  0.0000000000000000e+00 0.0000000000000000e+00 -9.4610711860533233e-04  0.0000000000000000e+00 0.0000000000000000e+00 -9.6590598862436909e-04  0.0000000000000000e+00 0.0000000000000000e+00 -9.7514418615481178e-04  0.0000000000000000e+00 0.0000000000000000e+00 -9.9592523609663111e-04  0.0000000000000000e+00 0.0000000000000000e+00 -1.0043711086958748e-03  </DataArray> 
</PointData> 
</Piece>
</UnstructuredGrid>
</VTKFile>