<?xml version="1.0"?>
<VTKFile type="UnstructuredGrid"  version="0.1" >
<UnstructuredGrid>
<Piece  NumberOfPoints="60" NumberOfCells="40">
<Points>
<DataArray  type="Float64"  NumberOfComponents="3"  format="ascii">5.5 0 0  6 0 0  6 0.5 0  5.5 0.5 0  6.5 0 0  6.5 0.5 0  6.5 1 0  6 1 0  5.5 1 0  7 0 0  7 0.5 0  7 1 0  7 1.5 0  6.5 1.5 0  6 1.5 0  5.5 1.5 0  7.5 0 0  7.5 0.5 0  7.5 1 0  7.5 1.5 0  7.5 2 0  7 2 0  6.5 2 0  6 2 0  5.5 2 0  8 0 0  8 0.5 0  8 1 0  8 1.5 0  8 2 0  8.5 0 0  8.5 0.5 0  8.5 1 0  8.5 1.5 0  8.5 2 0  9 0 0  9 0.5 0  9 1 0  9 1.5 0  9 2 0  9.5 0 0  9.5 0.5 0  9.5 1 0  9.5 1.5 0  9.5 2 0  10 0 0  10 0.5 0  10 1 0  10 1.5 0  10 2 0  5 2 0  5 1.5 0  5 1 0  5 0.5 0  5 0 0  4.5 0 0  4.5 0.5 0  4.5 1 0  4.5 1.5 0  4.5 2 0  </DataArray>
</Points>
<Cells>
<DataArray  type="Int32"  Name="connectivity"  format="ascii">54 0 3 53  0 1 2 3  1 4 5 2  4 9 10 5  9 16 17 10  16 25 26 17  25 30 31 26  30 35 36 31  35 40 41 36  40 45 46 41  53 3 8 52  3 2 7 8  2 5 6 7  5 10 11 6  10 17 18 11  17 26 27 18  26 31 32 27  31 36 37 32  36 41 42 37  41 46 47 42  52 8 15 51  8 7 14 15  7 6 13 14  6 11 12 13  11 18 19 12  18 27 28 19  27 32 33 28  32 37 38 33  37 42 43 38  42 47 48 43  51 15 24 50  15 14 23 24  14 13 22 23  13 12 21 22  12 19 20 21  19 28 29 20  28 33 34 29  33 38 39 34  38 43 44 39  43 48 49 44  55 54 53 56  56 53 52 57  57 52 51 58  58 51 50 59  </DataArray>
<DataArray  type="Int32"  Name="offsets"  format="ascii">4 8 12 16 20 24 28 32 36 40 44 48 52 56 60 64 68 72 76 80 84 88 92 96 100 104 108 112 116 120 124 128 132 136 140 144 148 152 156 160 </DataArray>
<DataArray  type="Int8"  Name="types"  format="ascii">70 70 70 70 70 70 70 70 70 70 70 70 70 70 70 70 70 70 70 70 70 70 70 70 70 70 70 70 70 70 70 70 70 70 70 70 70 70 70 70 </DataArray>
</Cells>
<PointData  Vectors="u"> 
<DataArray  type="Float64"  Name="u"  NumberOfComponents="3" format="ascii">0.0000000000000000e+00 0.0000000000000000e+00 -9.4610711860533320e-04  0.0000000000000000e+00 0.0000000000000000e+00 -1.0742315138337504e-03  0.0000000000000000e+00 0.0000000000000000e+00 -1.0820438785758533e-03  0.0000000000000000e+00 0.0000000000000000e+00 -9.6590598862437017e-04  0.0000000000000000e+00 0.0000000000000000e+00 -1.2251722392184739e-03  0.0000000000000000e+00 0.0000000000000000e+00 -1.2445537066894826e-03  0.0000000000000000e+00 0.0000000000000000e+00 -1.2522598597253290e-03  0.0000000000000000e+00 0.0000000000000000e+00 -1.1016184407262148e-03  0.0000000000000000e+00 0.0000000000000000e+00 -9.7514418615481265e-04  0.0000000000000000e+00 0.0000000000000000e+00 -1.4148625529888240e-03  0.0000000000000000e+00 0.0000000000000000e+00 -1.4225251952924972e-03  0.0000000000000000e+00 0.0000000000000000e+00 -1.4416895119623028e-03  0.0000000000000000e+00 0.0000000000000000e+00 -1.4494478878963623e-03  0.0000000000000000e+00 0.0000000000000000e+00 -1.2713897820566436e-03  0.0000000000000000e+00 0.0000000000000000e+00 -1.1097395995390887e-03  0.0000000000000000e+00 0.0000000000000000e+00 -9.9592523609663176e-04  0.0000000000000000e+00 0.0000000000000000e+00 -1.6129964403229036e-03  0.0000000000000000e+00 0.0000000000000000e+00 -1.6321650974189721e-03  0.0000000000000000e+00 0.0000000000000000e+00 -1.6398671827426543e-03  0.0000000000000000e+00 0.0000000000000000e+00 -1.6589676121092215e-03  0.0000000000000000e+00 0.0000000000000000e+00 -1.6667386924278764e-03  0.0000000000000000e+00 0.0000000000000000e+00 -1.4685180215146915e-03  0.0000000000000000e+00 0.0000000000000000e+00 -1.2793558244267686e-03  0.0000000000000000e+00 0.0000000000000000e+00 -1.1289835413274337e-03  0.0000000000000000e+00 0.0000000000000000e+00 -1.0043711086958748e-03  0.0000000000000000e+00 0.0000000000000000e+00 -1.8366867083399201e-03  0.0000000000000000e+00 0.0000000000000000e+00 -1.8443847522127499e-03  0.0000000000000000e+00 0.0000000000000000e+00 -1.8635102823360483e-03  0.0000000000000000e+00 0.0000000000000000e+00 -1.8712424650526079e-03  0.0000000000000000e+00 0.0000000000000000e+00 -1.8903344926875108e-03  0.0000000000000000e+00 0.0000000000000000e+00 -2.0579983634592069e-03  0.0000000000000000e+00 0.0000000000000000e+00 -2.0771267145003485e-03  0.0000000000000000e+00 0.0000000000000000e+00 -2.0848435898068174e-03  0.0000000000000000e+00 0.0000000000000000e+00 -2.1039516138855320e-03  0.0000000000000000e+00 0.0000000000000000e+00 -2.1116890349810904e-03  0.0000000000000000e+00 0.0000000000000000e+00 -2.2959483205777136e-03  0.0000000000000000e+00 0.0000000000000000e+00 -2.3036608432241501e-03  0.0000000000000000e+00 0.0000000000000000e+00 -2.3227781245543791e-03  0.0000000000000000e+00 0.0000000000000000e+00 -2.3305056433462700e-03  0.0000000000000000e+00 0.0000000000000000e+00 -2.3496082037686035e-03  0.0000000000000000e+00 0.0000000000000000e+00 -2.5249264519523551e-03  0.0000000000000000e+00 0.0000000000000000e+00 -2.5440480841843662e-03  0.0000000000000000e+00 0.0000000000000000e+00 -2.5517656899173330e-03  0.0000000000000000e+00 0.0000000000000000e+00 -2.5708729413772145e-03  0.0000000000000000e+00 0.0000000000000000e+00 -2.5786059264187532e-03  0.0000000000000000e+00 0.0000000000000000e+00 -2.7661083321160406e-03  0.0000000000000000e+00 0.0000000000000000e+00 -2.7738156146101824e-03  0.0000000000000000e+00 0.0000000000000000e+00 -2.7929270249845936e-03  0.0000000000000000e+00 0.0000000000000000e+00 -2.8006485056798250e-03  0.0000000000000000e+00 0.0000000000000000e+00 -2.8197434212936679e-03  0.0000000000000000e+00 0.0000000000000000e+00 -8.5235853912485424e-04  0.0000000000000000e+00 0.0000000000000000e+00 -8.2803100202885475e-04  0.0000000000000000e+00 0.0000000000000000e+00 -8.1647998342855089e-04  0.0000000000000000e+00 0.0000000000000000e+00 -7.9366656212935061e-04  0.0000000000000000e+00 0.0000000000000000e+00 -7.8171712836796776e-04  0.0000000000000000e+00 0.0000000000000000e+00 -5.4938742153999944e-04  0.0000000000000000e+00 0.0000000000000000e+00 -5.7478658460616793e-04  0.0000000000000000e+00 0.0000000000000000e+00 -5.8903057460066538e-04  0.0000000000000000e+00 0.0000000000000000e+00 -6.1555305871249311e-04  0.0000000000000000e+00 0.0000000000000000e+00 -6.3067457708032961e-04  </DataArray> 
</PointData> 
</Piece>
</UnstructuredGrid>
</VTKFile>